Title: BJT FORWARD BIAS DIODE.
Date: Tue Sep 25 15:03:19 EDT 1990
Plotname: operating point
Flags: real
No. Variables: 11
No. Points: 1       
Command: version SPICE 3c1
Variables:
	0	V(14)	voltage
	1	V(2)	voltage
	2	V(15)	voltage
	3	V(4)	voltage
	4	V(3)	voltage
	5	vsrc#branch	current
	6	vee#branch	current
	7	vcc#branch	current
	8	q1#collector	voltage
	9	q1#base	voltage
	10	q1#emitter	voltage
Values:
0		1.000000000000000e+01
	9.999999959278366e+00
	0.000000000000000e+00
	1.015805698921881e-09
	0.000000000000000e+00
	3.056356991824415e-11
	1.015805698921881e-11
	-4.072163439783338e-11
	9.999999950824554e+00
	5.568682388786337e-09
	1.034862213833656e-09
Title: BJT FORWARD BIAS DIODE.
Date: Tue Sep 25 15:03:19 EDT 1990
Plotname: DCtransferCurve
Flags: real
No. Variables: 12
No. Points: 1001    
Command: version SPICE 3c1
Variables:
	0	sweep	voltage
	1	V(14)	voltage
	2	V(2)	voltage
	3	V(15)	voltage
	4	V(4)	voltage
	5	V(3)	voltage
	6	vsrc#branch	current
	7	vee#branch	current
	8	vcc#branch	current
	9	q1#collector	voltage
	10	q1#base	voltage
	11	q1#emitter	voltage
Values:
0		0.000000000000000e+00
	1.000000000000000e+01
	9.999999959278366e+00
	0.000000000000000e+00
	1.015805698921881e-09
	0.000000000000000e+00
	3.056356991824415e-11
	1.015805698921881e-11
	-4.072163439783338e-11
	9.999999950824554e+00
	5.568682388786337e-09
	1.034862213833656e-09
1		1.000000000000000e-02
	1.000000000000000e+01
	9.999999959349504e+00
	0.000000000000000e+00
	1.011752658655892e-09
	1.000000000000000e-02
	3.053296329690643e-11
	1.011752658655892e-11
	-4.065049685753053e-11
	9.999999950910460e+00
	1.000000556310586e-02
	1.030733138532277e-09
2		2.000000000000000e-02
	1.000000000000000e+01
	9.999999959420624e+00
	0.000000000000000e+00
	1.007701914153808e-09
	2.000000000000000e-02
	3.050235845153404e-11
	1.007701914153808e-11
	-4.057937666446243e-11
	9.999999950996344e+00
	2.000000555752966e-02
	1.026606402063333e-09
3		3.000000000000000e-02
	1.000000000000000e+01
	9.999999959491721e+00
	0.000000000000000e+00
	1.003652589648470e-09
	3.000000000000000e-02
	3.047175202051597e-11
	1.003652589648470e-11
	-4.050827902279952e-11
	9.999999951082202e+00
	3.000000555195316e-02
	1.022481112230275e-09
4		4.000000000000000e-02
	1.000000000000000e+01
	9.999999959562794e+00
	0.000000000000000e+00
	9.996061091178971e-10
	4.000000000000000e-02
	3.044114480345132e-11
	9.996061091178972e-12
	-4.043720566726527e-11
	9.999999951168030e+00
	4.000000554637653e-02
	1.018358719724949e-09
5		5.000000000000000e-02
	1.000000000000000e+01
	9.999999959633818e+00
	0.000000000000000e+00
	9.955638414684468e-10
	5.000000000000000e-02
	3.041053644797440e-11
	9.955638414684469e-12
	-4.036618088398836e-11
	9.999999951253798e+00
	5.000000554079970e-02
	1.014240619134395e-09
6		6.000000000000000e-02
	1.000000000000000e+01
	9.999999959704787e+00
	0.000000000000000e+00
	9.915278144840168e-10
	6.000000000000000e-02
	3.037992643908916e-11
	9.915278144840168e-12
	-4.029521334658615e-11
	9.999999951339502e+00
	6.000000553522255e-02
	1.010128876283737e-09
7		7.000000000000001e-02
	1.000000000000000e+01
	9.999999959775675e+00
	0.000000000000000e+00
	9.875010319384243e-10
	7.000000000000001e-02
	3.034931399074903e-11
	9.875010319384243e-12
	-4.022432560646383e-11
	9.999999951425105e+00
	7.000000552964497e-02
	1.006026551297589e-09
8		8.000000000000000e-02
	1.000000000000000e+01
	9.999999959846416e+00
	0.000000000000000e+00
	9.834879433211899e-10
	8.000000000000000e-02
	3.031869818138216e-11
	9.834879433211900e-12
	-4.015358358311349e-11
	9.999999951510533e+00
	8.000000552406676e-02
	1.001938177137895e-09
9		9.000000000000000e-02
	1.000000000000000e+01
	9.999999959916966e+00
	0.000000000000000e+00
	9.794951396184351e-10
	9.000000000000000e-02
	3.028807727626509e-11
	9.794951396184351e-12
	-4.008303411406899e-11
	9.999999951595727e+00
	9.000000551848764e-02
	9.978704684376771e-10
10		9.999999999999999e-02
	1.000000000000000e+01
	9.999999959987226e+00
	0.000000000000000e+00
	9.755323839282651e-10
	9.999999999999999e-02
	3.025744910699346e-11
	9.755323839282651e-12
	-4.001277434384498e-11
	9.999999951680573e+00
	1.000000055129072e-01
	9.938333714507594e-10
11		1.100000000000000e-01
	1.000000000000000e+01
	9.999999960057044e+00
	0.000000000000000e+00
	9.716141380316126e-10
	1.100000000000000e-01
	3.022681031254054e-11
	9.716141380316126e-12
	-3.994295519338387e-11
	9.999999951764886e+00
	1.100000055073248e-01
	9.898416192610857e-10
12		1.200000000000000e-01
	1.000000000000000e+01
	9.999999960126226e+00
	0.000000000000000e+00
	9.677618235626549e-10
	1.200000000000000e-01
	3.019615590557634e-11
	9.677618235626550e-12
	-3.987377442116191e-11
	9.999999951848430e+00
	1.200000055017395e-01
	9.859170353726903e-10
13		1.300000000000000e-01
	1.000000000000000e+01
	9.999999960194446e+00
	0.000000000000000e+00
	9.640071712415502e-10
	1.300000000000000e-01
	3.016547905562716e-11
	9.640071712415502e-12
	-3.980555468574565e-11
	9.999999951930812e+00
	1.300000054961502e-01
	9.820919457740419e-10
14		1.400000000000000e-01
	1.000000000000000e+01
	9.999999960261258e+00
	0.000000000000000e+00
	9.603971816895482e-10
	1.400000000000000e-01
	3.013476902909151e-11
	9.603971816895482e-12
	-3.973874181106840e-11
	9.999999952011494e+00
	1.400000054905549e-01
	9.784142328180440e-10
15		1.500000000000000e-01
	1.000000000000000e+01
	9.999999960325972e+00
	0.000000000000000e+00
	9.570014732091450e-10
	1.500000000000000e-01
	3.010401183976136e-11
	9.570014732091450e-12
	-3.967402795179709e-11
	9.999999952089643e+00
	1.500000054849509e-01
	9.749548208465486e-10
16		1.600000000000000e-01
	1.000000000000000e+01
	9.999999960387578e+00
	0.000000000000000e+00
	9.539231649328798e-10
	1.600000000000000e-01
	3.007318493623151e-11
	9.539231649328797e-12
	-3.961242098227125e-11
	9.999999952164039e+00
	1.600000054793342e-01
	9.718187635070205e-10
17		1.700000000000000e-01
	1.000000000000000e+01
	9.999999960444589e+00
	0.000000000000000e+00
	9.513149961939731e-10
	1.700000000000000e-01
	3.004225676821876e-11
	9.513149961939731e-12
	-3.955541102995674e-11
	9.999999952232885e+00
	1.700000054736991e-01
	9.691616655225720e-10
18		1.800000000000000e-01
	1.000000000000000e+01
	9.999999960494781e+00
	0.000000000000000e+00
	9.494032011505963e-10
	1.800000000000000e-01
	3.001118169081163e-11
	9.494032011505963e-12
	-3.950521854090283e-11
	9.999999952293498e+00
	1.800000054680373e-01
	9.672140052041814e-10
19		1.900000000000000e-01
	1.000000000000000e+01
	9.999999960534881e+00
	0.000000000000000e+00
	9.485228693992616e-10
	1.900000000000000e-01
	2.997989183295413e-11
	9.485228693992617e-12
	-3.946511867303215e-11
	9.999999952341922e+00
	1.900000054623363e-01
	9.663171584291919e-10
20		2.000000000000000e-01
	1.000000000000000e+01
	9.999999960560002e+00
	0.000000000000000e+00
	9.491703177933209e-10
	2.000000000000000e-01
	2.994829015855183e-11
	9.491703177933209e-12
	-3.943999814237653e-11
	9.999999952372258e+00
	2.000000054565784e-01
	9.669767529551237e-10
21		2.100000000000000e-01
	1.000000000000000e+01
	9.999999960562961e+00
	0.000000000000000e+00
	9.520806561896117e-10
	2.100000000000000e-01
	2.991623376975838e-11
	9.520806561896117e-12
	-3.943703870412651e-11
	9.999999952375831e+00
	2.100000054507378e-01
	9.699416892997289e-10
22		2.200000000000001e-01
	1.000000000000000e+01
	9.999999960533051e+00
	0.000000000000000e+00
	9.583426653769456e-10
	2.200000000000001e-01
	2.988351558395885e-11
	9.583426653769455e-12
	-3.946694880629931e-11
	9.999999952339714e+00
	2.200000054447765e-01
	9.763211737794172e-10
23		2.300000000000001e-01
	1.000000000000000e+01
	9.999999960454476e+00
	0.000000000000000e+00
	9.695689335194696e-10
	2.300000000000001e-01
	2.984983310874711e-11
	9.695689335194697e-12
	-3.954552484086715e-11
	9.999999952244824e+00
	2.300000054386396e-01
	9.877580467122949e-10
24		2.400000000000001e-01
	1.000000000000000e+01
	9.999999960303773e+00
	0.000000000000000e+00
	9.881478280388981e-10
	2.400000000000001e-01
	2.981474550751984e-11
	9.881478280388980e-12
	-3.969622720811916e-11
	9.999999952062836e+00
	2.400000054322467e-01
	1.006685481292908e-09
25		2.500000000000001e-01
	1.000000000000000e+01
	9.999999960046217e+00
	0.000000000000000e+00
	1.017616660376331e-09
	2.500000000000001e-01
	2.977761071575047e-11
	1.017616660376331e-11
	-3.995378333732091e-11
	9.999999951751812e+00
	2.500000054254807e-01
	1.036707148924991e-09
26		2.600000000000001e-01
	1.000000000000000e+01
	9.999999959630363e+00
	0.000000000000000e+00
	1.063214326645309e-09
	2.600000000000001e-01
	2.973749285012373e-11
	1.063214326645309e-11
	-4.036963645315250e-11
	9.999999951249627e+00
	2.600000054181712e-01
	1.083160227413175e-09
27		2.700000000000001e-01
	1.000000000000000e+01
	9.999999958979974e+00
	0.000000000000000e+00
	1.132699731956964e-09
	2.700000000000001e-01
	2.969302646642358e-11
	1.132699731956964e-11
	-4.102002591765963e-11
	9.999999950464217e+00
	2.700000054100694e-01
	1.153949178928477e-09
28		2.800000000000001e-01
	1.000000000000000e+01
	9.999999957982133e+00
	0.000000000000000e+00
	1.237563804223248e-09
	2.800000000000001e-01
	2.964222118630178e-11
	1.237563804223248e-11
	-4.201786661661711e-11
	9.999999949259225e+00
	2.800000054008127e-01
	1.260780501190476e-09
29		2.900000000000001e-01
	1.000000000000000e+01
	9.999999956469578e+00
	0.000000000000000e+00
	1.394824350850445e-09
	2.900000000000001e-01
	2.958217395002127e-11
	1.394824350850445e-11
	-4.353042232230209e-11
	9.999999947432661e+00
	2.900000053898721e-01
	1.420991255672399e-09
30		3.000000000000001e-01
	1.000000000000000e+01
	9.999999954194513e+00
	0.000000000000000e+00
	1.629683997714343e-09
	3.000000000000001e-01
	2.950865008073678e-11
	1.629683997714343e-11
	-4.580548787491701e-11
	9.999999944685293e+00
	3.000000053764761e-01
	1.660256869511464e-09
31		3.100000000000001e-01
	1.000000000000000e+01
	9.999999950789864e+00
	0.000000000000000e+00
	1.979466170951146e-09
	3.100000000000001e-01
	2.941547157762903e-11
	1.979466170951146e-11
	-4.921013596614898e-11
	9.999999940573838e+00
	3.100000053594990e-01
	2.016600956318190e-09
32		3.200000000000001e-01
	1.000000000000000e+01
	9.999999945711942e+00
	0.000000000000000e+00
	2.499443557149497e-09
	3.200000000000001e-01
	2.929362416699555e-11
	2.499443557149497e-11
	-5.428805842366824e-11
	9.999999934441739e+00
	3.200000053372984e-01
	2.546333118281621e-09
33		3.300000000000001e-01
	1.000000000000000e+01
	9.999999938155353e+00
	0.000000000000000e+00
	3.271468824637353e-09
	3.300000000000001e-01
	2.912995148915409e-11
	3.271468824637353e-11
	-6.184464745873086e-11
	9.999999925316406e+00
	3.300000053074773e-01
	3.332841579787550e-09
34		3.400000000000001e-01
	1.000000000000000e+01
	9.999999926927204e+00
	0.000000000000000e+00
	4.416754676870025e-09
	3.400000000000001e-01
	2.890525080574691e-11
	4.416754676870025e-11
	-7.307279607793316e-11
	9.999999911757291e+00
	3.400000052665368e-01
	4.499612994608106e-09
35		3.500000000000001e-01
	1.000000000000000e+01
	9.999999910260531e+00
	0.000000000000000e+00
	6.114797740186237e-09
	3.500000000000001e-01
	2.859148811804046e-11
	6.114797740186238e-11
	-8.973946932777643e-11
	9.999999891630617e+00
	3.500000052093692e-01
	6.229511345792131e-09
36		3.600000000000002e-01
	1.000000000000000e+01
	9.999999885538275e+00
	0.000000000000000e+00
	8.631399326906676e-09
	3.600000000000002e-01
	2.814773067405518e-11
	8.631399326906677e-11
	-1.144617248205471e-10
	9.999999861776018e+00
	3.600000051285167e-01
	8.793324378279445e-09
37		3.700000000000002e-01
	1.000000000000000e+01
	9.999999848884240e+00
	0.000000000000000e+00
	1.236015522202358e-08
	3.700000000000002e-01
	2.751419968596847e-11
	1.236015522202358e-10
	-1.511157605299518e-10
	9.999999817512608e+00
	3.700000050130873e-01
	1.259203173398875e-08
38		3.800000000000002e-01
	1.000000000000000e+01
	9.999999794557533e+00
	0.000000000000000e+00
	1.788388756199283e-08
	3.800000000000002e-01
	2.660358305178745e-11
	1.788388756199283e-10
	-2.054424668579413e-10
	9.999999751907678e+00
	3.800000048471729e-01
	1.821938929265582e-08
39		3.900000000000002e-01
	1.000000000000000e+01
	9.999999714055646e+00
	0.000000000000000e+00
	2.606560209719815e-08
	3.900000000000002e-01
	2.528832742168530e-11
	2.606560209719815e-10
	-2.859443549996232e-10
	9.999999654693598e+00
	3.900000046075334e-01
	2.655459279254159e-08
40		4.000000000000002e-01
	1.000000000000000e+01
	9.999999594786349e+00
	0.000000000000000e+00
	3.818315838629441e-08
	4.000000000000002e-01
	2.338205974325436e-11
	3.818315838629441e-10
	-4.052136508281290e-10
	9.999999510663995e+00
	4.000000042602114e-01
	3.889947443762129e-08
41		4.100000000000002e-01
	1.000000000000000e+01
	9.999999418101018e+00
	0.000000000000000e+00
	5.612865618239728e-08
	4.100000000000002e-01
	2.061241542034020e-11
	5.612865618239729e-10
	-5.818989821243514e-10
	9.999999297298789e+00
	4.100000037555823e-01
	5.718162977237906e-08
42		4.200000000000002e-01
	1.000000000000000e+01
	9.999999156382399e+00
	0.000000000000000e+00
	8.270363015842296e-08
	4.200000000000002e-01
	1.658129493084526e-11
	8.270363015842296e-10
	-8.436176011233920e-10
	9.999998981247384e+00
	4.200000030211121e-01
	8.425515026019498e-08
43		4.300000000000002e-01
	1.000000000000000e+01
	9.999998768732498e+00
	0.000000000000000e+00
	1.220560782479402e-07
	4.300000000000002e-01
	1.070671112532451e-11
	1.220560782479402e-09
	-1.231267502885269e-09
	9.999998513121366e+00
	4.300000019507630e-01
	1.243458502758716e-07
44		4.400000000000002e-01
	1.000000000000000e+01
	9.999998194587791e+00
	0.000000000000000e+00
	1.803274506302495e-07
	4.400000000000002e-01
	2.137700173127088e-12
	1.803274506302495e-09
	-1.805412208621959e-09
	9.999997819784216e+00
	4.400000003894892e-01
	1.837103936040730e-07
45		4.500000000000002e-01
	1.000000000000000e+01
	9.999997344265861e+00
	0.000000000000000e+00
	2.666104348746745e-07
	4.500000000000002e-01
	-1.037021163385887e-11
	2.666104348746745e-09
	-2.655734139545007e-09
	9.999996792935452e+00
	4.499999981105523e-01
	2.716120466329234e-07
46		4.600000000000002e-01
	1.000000000000000e+01
	9.999996084969577e+00
	0.000000000000000e+00
	3.943667717762314e-07
	4.600000000000002e-01
	-2.863729869559406e-11
	3.943667717762314e-09
	-3.915030423115584e-09
	9.999995272209262e+00
	4.599999947823202e-01
	4.017650924147535e-07
47		4.700000000000003e-01
	1.000000000000000e+01
	9.999994220067112e+00
	0.000000000000000e+00
	5.835259395669403e-07
	4.700000000000003e-01
	-5.532650899919833e-11
	5.835259395669403e-09
	-5.779932888208550e-09
	9.999993020153044e+00
	4.699999899196442e-01
	5.944728861932160e-07
48		4.800000000000003e-01
	1.000000000000000e+01
	9.999991458419746e+00
	0.000000000000000e+00
	8.635914484487562e-07
	4.800000000000003e-01
	-9.433423313331968e-11
	8.635914484487562e-09
	-8.541580253859649e-09
	9.999989685187685e+00
	4.799999828126921e-01
	8.797924240216549e-07
49		4.900000000000003e-01
	1.000000000000000e+01
	9.999987368981879e+00
	0.000000000000000e+00
	1.278238065250406e-06
	4.900000000000003e-01
	-1.513625362201121e-10
	1.278238065250406e-08
	-1.263101812205847e-08
	9.999984746782516e+00
	4.899999724227480e-01
	1.302217811354503e-06
50		5.000000000000002e-01
	1.000000000000000e+01
	9.999981313610606e+00
	0.000000000000000e+00
	1.892114658841170e-06
	5.000000000000002e-01
	-2.347571924181391e-10
	1.892114658841170e-08
	-1.868638939417355e-08
	9.999977434316166e+00
	4.999999572296495e-01
	1.927610729841030e-06
51		5.100000000000002e-01
	1.000000000000000e+01
	9.999972347645302e+00
	0.000000000000000e+00
	2.800908972679538e-06
	5.100000000000002e-01
	-3.567350351750542e-10
	2.800908972679538e-08
	-2.765235469770477e-08
	9.999966607016468e+00
	5.099999350084411e-01
	2.853454025007006e-06
52		5.200000000000002e-01
	1.000000000000000e+01
	9.999959072837102e+00
	0.000000000000000e+00
	4.146234425881175e-06
	5.200000000000002e-01
	-5.351813671047867e-10
	4.146234425881175e-08
	-4.092716289830212e-08
	9.999950576358085e+00
	5.199999025024780e-01
	4.224017783710707e-06
53		5.300000000000002e-01
	1.000000000000000e+01
	9.999939419874631e+00
	0.000000000000000e+00
	6.137640714797384e-06
	5.300000000000002e-01
	-7.962817805302891e-10
	6.137640714797384e-08
	-6.058012536926116e-08
	9.999926843440603e+00
	5.299998549451801e-01
	6.252782854606982e-06
54		5.400000000000003e-01
	1.000000000000000e+01
	9.999910326984210e+00
	0.000000000000000e+00
	9.085139020096687e-06
	5.400000000000003e-01
	-1.178374413671190e-09
	9.085139020096687e-08
	-8.967301578892417e-08
	9.999891710866132e+00
	5.399997853608811e-01
	9.255576228113702e-06
55		5.500000000000003e-01
	1.000000000000000e+01
	9.999867265330021e+00
	0.000000000000000e+00
	1.344722551815568e-05
	5.500000000000003e-01
	-1.737585211131210e-09
	1.344722551815568e-07
	-1.327346699792759e-07
	9.999839709612534e+00
	5.499996835439332e-01
	1.369949546887628e-05
56		5.600000000000003e-01
	1.000000000000000e+01
	9.999803539031220e+00
	0.000000000000000e+00
	1.990170321132746e-05
	5.600000000000003e-01
	-2.556063334949177e-09
	1.990170321132746e-07
	-1.964609687796909e-07
	9.999762753734100e+00
	5.599995345707476e-01
	2.027505916357196e-05
57		5.700000000000003e-01
	1.000000000000000e+01
	9.999709254591673e+00
	0.000000000000000e+00
	2.944994061211893e-05
	5.700000000000003e-01
	-3.753997799681857e-09
	2.944994061211893e-07
	-2.907454083270894e-07
	9.999648895844905e+00
	5.699993166371803e-01
	3.000242149800228e-05
58		5.800000000000003e-01
	1.000000000000000e+01
	9.999569806989689e+00
	0.000000000000000e+00
	4.357001268847084e-05
	5.800000000000003e-01
	-5.507116577867233e-09
	4.357001268847084e-07
	-4.301930103117746e-07
	9.999480498920747e+00
	5.799989979243899e-01
	4.438738612650656e-05
59		5.900000000000003e-01
	1.000000000000000e+01
	9.999363667232792e+00
	0.000000000000000e+00
	6.444048085733889e-05
	5.900000000000003e-01
	-8.072041375161570e-09
	6.444048085733889e-07
	-6.363327672079255e-07
	9.999231564550319e+00
	5.899985321068799e-01
	6.564938427822257e-05
60		6.000000000000003e-01
	1.000000000000000e+01
	9.999059160223808e+00
	0.000000000000000e+00
	9.526626878174645e-05
	6.000000000000003e-01
	-1.182291163234761e-08
	9.526626878174645e-07
	-9.408397761909160e-07
	9.998863841886271e+00
	5.999978519294570e-01
	9.705346398409201e-05
61		6.100000000000003e-01
	1.000000000000000e+01
	9.998609822266923e+00
	0.000000000000000e+00
	1.407481458158482e-04
	6.100000000000003e-01
	-1.730372508777431e-08
	1.407481458158483e-06
	-1.390177733076939e-06
	9.998321221369537e+00
	6.099968602167267e-01
	1.433885810313536e-04
62		6.200000000000003e-01
	1.000000000000000e+01
	9.997947791871319e+00
	0.000000000000000e+00
	2.077510400264986e-04
	6.200000000000003e-01
	-2.530227158651852e-08
	2.077510400264986e-06
	-2.052208128681607e-06
	9.997521753463804e+00
	6.199954175375533e-01
	2.116484495373957e-04
63		6.300000000000003e-01
	1.000000000000000e+01
	9.996974569753773e+00
	0.000000000000000e+00
	3.062382972930952e-04
	6.300000000000003e-01
	-3.695272670148353e-08
	3.062382972930952e-06
	-3.025430246227784e-06
	9.996346490434656e+00
	6.299933257240926e-01
	3.119833277503136e-04
64		6.400000000000003e-01
	1.000000000000000e+01
	9.995548507151609e+00
	0.000000000000000e+00
	4.505366413241101e-04
	6.400000000000003e-01
	-5.387356485399286e-08
	4.505366413241101e-06
	-4.451492848391372e-06
	9.994624377236283e+00
	6.399903074332663e-01
	4.589887087153504e-04
65		6.500000000000004e-01
	1.000000000000000e+01
	9.993468608099503e+00
	0.000000000000000e+00
	6.609736817732974e-04
	6.500000000000004e-01
	-7.834491723901146e-08
	6.609736817732974e-06
	-6.531391900497022e-06
	9.992112691140958e+00
	6.499859827235498e-01
	6.733735480433644e-04
66		6.600000000000004e-01
	1.000000000000000e+01
	9.990455092712164e+00
	0.000000000000000e+00
	9.658427443829682e-04
	6.600000000000004e-01
	-1.135201559950352e-07
	9.658427443829682e-06
	-9.544907287835358e-06
	9.988473569959210e+00
	6.599798468056303e-01
	9.839619542675927e-04
67		6.700000000000004e-01
	1.000000000000000e+01
	9.986129062403871e+00
	0.000000000000000e+00
	1.403458395213456e-03
	6.700000000000004e-01
	-1.636463560104537e-07
	1.403458395213456e-05
	-1.387093759613010e-05
	9.983249455758914e+00
	6.699712581049884e-01
	1.429787274707661e-03
68		6.800000000000004e-01
	1.000000000000000e+01
	9.979996777520229e+00
	0.000000000000000e+00
	2.023745766342433e-03
	6.800000000000004e-01
	-2.342351836546672e-07
	2.023745766342433e-05
	-2.000322247977006e-05
	9.975844108533430e+00
	6.799594507193089e-01
	2.061711236919017e-03
69		6.900000000000004e-01
	1.000000000000000e+01
	9.971448160709167e+00
	0.000000000000000e+00
	2.888392286485046e-03
	6.900000000000004e-01
	-3.320835740205572e-07
	2.888392286485046e-05
	-2.855183929083294e-05
	9.965520798872390e+00
	6.899435882475455e-01
	2.942578525779505e-03
70		7.000000000000004e-01
	1.000000000000000e+01
	9.959781710477852e+00
	0.000000000000000e+00
	4.068330790816672e-03
	7.000000000000004e-01
	-4.650183860251816e-07
	4.068330790816672e-05
	-4.021828952214743e-05
	9.951432393573054e+00
	6.999228683056917e-01
	4.144652676452393e-03
71		7.100000000000004e-01
	1.000000000000000e+01
	9.944264547584318e+00
	0.000000000000000e+00
	5.637672960218315e-03
	7.100000000000004e-01
	-6.412771865029268e-07
	5.637672960218316e-05
	-5.573545241568251e-05
	9.932693867662822e+00
	7.098966642663347e-01
	5.743435704952011e-03
72		7.200000000000004e-01
	1.000000000000000e+01
	9.924223203967166e+00
	0.000000000000000e+00
	7.664536983060802e-03
	7.200000000000004e-01
	-8.685737977777441e-07
	7.664536983060803e-05
	-7.577679603283302e-05
	9.908491941110750e+00
	7.198646604098546e-01
	7.808323696863024e-03
73		7.300000000000004e-01
	1.000000000000000e+01
	9.899141985315186e+00
	0.000000000000000e+00
	1.020111032143544e-02
	7.300000000000004e-01
	-1.153088529545071e-06
	1.020111032143544e-04
	-1.008580146848147e-04
	9.878203861466618e+00
	7.298269236345750e-01
	1.039248315106557e-02
74		7.400000000000004e-01
	1.000000000000000e+01
	9.868734967643707e+00
	0.000000000000000e+00
	1.327637608688728e-02
	7.400000000000004e-01
	-1.498728512581808e-06
	1.327637608688728e-04
	-1.312650323562932e-04
	9.841484346926540e+00
	7.397838798439568e-01
	1.352544090227729e-02
75		7.500000000000004e-01
	1.000000000000000e+01
	9.832966774852837e+00
	0.000000000000000e+00
	1.689401314275895e-02
	7.500000000000004e-01
	-1.906906280424274e-06
	1.689401314275895e-04
	-1.670332251471635e-04
	9.798290677312286e+00
	7.497362117638259e-01
	1.721094482931711e-02
76		7.600000000000005e-01
	1.000000000000000e+01
	9.792021362171365e+00
	0.000000000000000e+00
	2.103554774991620e-02
	7.600000000000005e-01
	-2.376839670525065e-06
	2.103554774991620e-04
	-2.079786378286347e-04
	9.748844996958141e+00
	7.596847271995724e-01
	2.143017462570463e-02
77		7.700000000000005e-01
	1.000000000000000e+01
	9.746239036348998e+00
	0.000000000000000e+00
	2.566671309842770e-02
	7.700000000000005e-01
	-2.906167333279613e-06
	2.566671309842770e-04
	-2.537609636510015e-04
	9.693558260295049e+00
	7.696302430077774e-01
	2.614822063615420e-02
78		7.800000000000005e-01
	1.000000000000000e+01
	9.696047348819594e+00
	0.000000000000000e+00
	3.074442751688026e-02
	7.800000000000005e-01
	-3.491623988398709e-06
	3.074442751688025e-04
	-3.039526511804062e-04
	9.632946778434540e+00
	7.795735064424021e-01
	3.132119297709693e-02
79		7.900000000000005e-01
	1.000000000000000e+01
	9.641903645989945e+00
	0.000000000000000e+00
	3.622259543293936e-02
	7.900000000000005e-01
	-4.129600319339663e-06
	3.622259543293936e-04
	-3.580963540100544e-04
	9.567562842897459e+00
	7.895151548358111e-01
	3.690213132326130e-02
80		8.000000000000005e-01
	1.000000000000000e+01
	9.584255749186742e+00
	0.000000000000000e+00
	4.205607759642381e-02
	8.000000000000005e-01
	-4.816525150982964e-06
	4.205607759642381e-04
	-4.157442508132582e-04
	9.497947242717910e+00
	7.994557045736490e-01
	4.284504961213272e-02
81		8.100000000000005e-01
	1.000000000000000e+01
	9.523519404240131e+00
	0.000000000000000e+00
	4.820296801893428e-02
	8.100000000000005e-01
	-5.549084429482161e-06
	4.820296801893429e-04
	-4.764805957598681e-04
	9.424602032560381e+00
	8.093955582268206e-01
	4.910725569896949e-02
82		8.200000000000005e-01
	1.000000000000000e+01
	9.460068044839730e+00
	0.000000000000000e+00
	5.462562764149850e-02
	8.200000000000005e-01
	-6.324321254710594e-06
	5.462562764149849e-04
	-5.399319551602708e-04
	9.347978170948457e+00
	8.193350204687865e-01
	5.565040441605301e-02
83		8.300000000000005e-01
	1.000000000000000e+01
	9.394230339141723e+00
	0.000000000000000e+00
	6.129093222012850e-02
	8.300000000000005e-01
	-7.139661343007891e-06
	6.129093222012850e-04
	-6.057696608582769e-04
	9.268472557547543e+00
	8.292743164401257e-01
	6.244075010857811e-02
84		8.400000000000005e-01
	1.000000000000000e+01
	9.326292068338526e+00
	0.000000000000000e+00
	6.817008290352311e-02
	8.400000000000005e-01
	-7.992897373751764e-06
	6.817008290352311e-04
	-6.737079316614727e-04
	9.186430301725604e+00
	8.392136090556145e-01
	6.944895365879321e-02
85		8.500000000000005e-01
	1.000000000000000e+01
	9.256500071894035e+00
	0.000000000000000e+00
	7.523820820539640e-02
	8.500000000000005e-01
	-8.882153947993229e-06
	7.523820820539640e-04
	-7.434999281059652e-04
	9.102149486819236e+00
	8.491530137593846e-01
	7.664967699132963e-02
86		8.600000000000005e-01
	1.000000000000000e+01
	9.185066915570053e+00
	0.000000000000000e+00
	8.247389303315958e-02
	8.600000000000005e-01
	-9.805845901659366e-06
	8.247389303315958e-04
	-8.149330844299477e-04
	9.015886807242396e+00
	8.590926104004317e-01
	8.402110326646166e-02
87		8.700000000000006e-01
	1.000000000000000e+01
	9.112175553565011e+00
	0.000000000000000e+00
	8.985870832235902e-02
	8.700000000000006e-01
	-1.076263678859331e-05
	8.985870832235903e-04
	-8.878244464349885e-04
	8.927863198485108e+00
	8.690324524603238e-01
	9.154445769048648e-02
88		8.800000000000006e-01
	1.000000000000000e+01
	9.037983631355459e+00
	0.000000000000000e+00
	9.737677694216230e-02
	8.800000000000006e-01
	-1.175140077709289e-05
	9.737677694216230e-04
	-9.620163686445415e-04
	8.838269033224853e+00
	8.789725740677182e-01
	9.920356527759727e-02
89		8.900000000000006e-01
	1.000000000000000e+01
	8.962627289743789e+00
	0.000000000000000e+00
	1.050143899450888e-01
	8.900000000000006e-01
	-1.277118919467204e-05
	1.050143899450888e-03
	-1.037372710256211e-03
	8.747268715094599e+00
	8.889129952576168e-01
	1.069844599004586e-01
90		9.000000000000006e-01
	1.000000000000000e+01
	8.886224444769683e+00
	0.000000000000000e+00
	1.127596757131593e-01
	9.000000000000006e-01
	-1.382120190126720e-05
	1.127596757131593e-03
	-1.113775555230317e-03
	8.655004639503870e+00
	8.988537258809637e-01
	1.148750472295381e-01
91		9.100000000000006e-01
	1.000000000000000e+01
	8.808877574043070e+00
	0.000000000000000e+00
	1.206023189122779e-01
	9.100000000000006e-01
	-1.490076316584647e-05
	1.206023189122779e-03
	-1.191122425956931e-03
	8.561600558414410e+00
	9.087947684956702e-01
	1.228648184150723e-01
92		9.200000000000006e-01
	1.000000000000000e+01
	8.730676063517677e+00
	0.000000000000000e+00
	1.285333238001079e-01
	9.200000000000006e-01
	-1.600930151875180e-05
	1.285333238001079e-03
	-1.269323936482323e-03
	8.467164414303946e+00
	9.187361204974095e-01
	1.309446089545979e-01
93		9.300000000000006e-01
	1.000000000000000e+01
	8.651698175019744e+00
	0.000000000000000e+00
	1.365448157985833e-01
	9.300000000000006e-01
	-1.714633300557190e-05
	1.365448157985833e-03
	-1.348301824980256e-03
	8.371790716153843e+00
	9.286777756865865e-01
	1.391063965429647e-01
94		9.400000000000006e-01
	1.000000000000000e+01
	8.572012692666537e+00
	0.000000000000000e+00
	1.446298754631179e-01
	9.400000000000006e-01
	-1.831144729771972e-05
	1.446298754631179e-03
	-1.427987307333463e-03
	8.275562527664109e+00
	9.386197254185105e-01
	1.473431319268060e-01
95		9.500000000000006e-01
	1.000000000000000e+01
	8.491680300431243e+00
	0.000000000000000e+00
	1.527823995744648e-01
	9.500000000000006e-01
	-1.950429617588595e-05
	1.527823995744648e-03
	-1.508319699568756e-03
	8.178553130800768e+00
	9.485619594458301e-01
	1.556485973904817e-01
96		9.600000000000006e-01
	1.000000000000000e+01
	8.410754736053136e+00
	0.000000000000000e+00
	1.609969847918671e-01
	9.600000000000006e-01
	-2.072458397179774e-05
	1.609969847918671e-03
	-1.589245263946864e-03
	8.080827419257767e+00
	9.585044665337840e-01
	1.640172882265625e-01
97		9.700000000000006e-01
	1.000000000000000e+01
	8.329283759509279e+00
	0.000000000000000e+00
	1.692688300111531e-01
	9.700000000000006e-01
	-2.197205962081727e-05
	1.692688300111531e-03
	-1.670716240490722e-03
	7.982443067983404e+00
	9.684472349076407e-01
	1.724443132621623e-01
98		9.800000000000006e-01
	1.000000000000000e+01
	8.247309967918490e+00
	0.000000000000000e+00
	1.775936542119668e-01
	9.800000000000006e-01
	-2.324651003816555e-05
	1.775936542119668e-03
	-1.752690032081511e-03
	7.883451517258369e+00
	9.783902525760700e-01
	1.809253111649833e-01
99		9.900000000000007e-01
	1.000000000000000e+01
	8.164871483238304e+00
	0.000000000000000e+00
	1.859676271344707e-01
	9.900000000000007e-01
	-2.454775458302950e-05
	1.859676271344707e-03
	-1.835128516761696e-03
	7.783898803158576e+00
	9.883335075627107e-01
	1.894563798195134e-01
100		1.000000000000001e+00
	1.000000000000000e+01
	8.082002534457441e+00
	0.000000000000000e+00
	1.943873105960271e-01
	1.000000000000001e+00
	-2.587564041771004e-05
	1.943873105960271e-03
	-1.917997465542559e-03
	7.683826260610805e+00
	9.982769880697979e-01
	1.980340165428086e-01
101		1.010000000000001e+00
	1.000000000000000e+01
	7.998733952110580e+00
	0.000000000000000e+00
	2.028496086494215e-01
	1.010000000000001e+00
	-2.723003860481861e-05
	2.028496086494215e-03
	-2.001266047889420e-03
	7.583271120568736e+00
	1.008220682591500e+00
	2.066550673076847e-01
102		1.020000000000001e+00
	1.000000000000000e+01
	7.915093589751574e+00
	0.000000000000000e+00
	2.113517251062766e-01
	1.020000000000001e+00
	-2.861084081436094e-05
	2.113517251062766e-03
	-2.084906410248426e-03
	7.482267018984001e+00
	1.018164579990078e+00
	2.153166834692703e-01
103		1.030000000000001e+00