Title: 
Date: Mon Aug  6 11:25:27 1990
Plotname: 
Flags: real
No. Variables: 2
No. Points: 0000451
Command: version CAzM 4.1
Variables:
	0	Frequency	Frequency
	1	vm_12	voltage
Values:

0		1.000000000000000e-01
	7.409425377887998e-01
1		1.047128548050900e-01
	7.409425371003648e-01
2		1.096478196143185e-01
	7.409425363455456e-01
3		1.148153621496883e-01
	7.409425355178704e-01
4		1.202264434617413e-01
	7.409425346103178e-01
5		1.258925411794168e-01
	7.409425336152217e-01
6		1.318256738556408e-01
	7.409425325241088e-01
7		1.380384264602885e-01
	7.409425313277691e-01
8		1.445439770745928e-01
	7.409425300159622e-01
9		1.513561248436209e-01
	7.409425285777064e-01
10		1.584893192461115e-01
	7.409425270005878e-01
11		1.659586907437562e-01
	7.409425252713236e-01
12		1.737800828749377e-01
	7.409425233752370e-01
13		1.819700858609985e-01
	7.409425212961899e-01
14		1.905460717963249e-01
	7.409425190166005e-01
15		1.995262314968882e-01
	7.409425165170246e-01
16		2.089296130854042e-01
	7.409425137763340e-01
17		2.187761623949555e-01
	7.409425107712545e-01
18		2.290867652767776e-01
	7.409425074761620e-01
19		2.398832919019494e-01
	7.409425038632462e-01
20		2.511886431509583e-01
	7.409424999017418e-01
21		2.630267991895386e-01
	7.409424955580846e-01
22		2.754228703338171e-01
	7.409424907952376e-01
23		2.884031503126611e-01
	7.409424855730100e-01
24		3.019951720402022e-01
	7.409424798468613e-01
25		3.162277660168385e-01
	7.409424735682688e-01
26		3.311311214825917e-01
	7.409424666839475e-01
27		3.467368504525323e-01
	7.409424591354800e-01
28		3.630780547701021e-01
	7.409424508586880e-01
29		3.801893963205620e-01
	7.409424417833963e-01
30		3.981071705534981e-01
	7.409424318325379e-01
31		4.168693834703363e-01
	7.409424209216819e-01
32		4.365158322401669e-01
	7.409424089580923e-01
33		4.570881896148761e-01
	7.409423958403122e-01
34		4.786300923226395e-01
	7.409423814569606e-01
35		5.011872336272735e-01
	7.409423656859567e-01
36		5.248074602497739e-01
	7.409423483933407e-01
37		5.495408738576260e-01
	7.409423294323548e-01
38		5.754399373371585e-01
	7.409423086421103e-01
39		6.025595860743594e-01
	7.409422858460056e-01
40		6.309573444801950e-01
	7.409422608505983e-01
41		6.606934480075979e-01
	7.409422334436750e-01
42		6.918309709189385e-01
	7.409422033926201e-01
43		7.244359600749922e-01
	7.409421704423550e-01
44		7.585775750291861e-01
	7.409421343129735e-01
45		7.943282347242840e-01
	7.409420946979089e-01
46		8.317637711026737e-01
	7.409420512609496e-01
47		8.709635899560836e-01
	7.409420036332035e-01
48		9.120108393559129e-01
	7.409419514104798e-01
49		9.549925860214393e-01
	7.409418941494679e-01
50		1.000000000000004e+00
	7.409418313639480e-01
51		1.047128548050903e+00
	7.409417625209588e-01
52		1.096478196143189e+00
	7.409416870363097e-01
53		1.148153621496887e+00
	7.409416042688854e-01
54		1.202264434617417e+00
	7.409415135163101e-01
55		1.258925411794172e+00
	7.409414140081761e-01
56		1.318256738556412e+00
	7.409413048996539e-01
57		1.380384264602890e+00
	7.409411852645945e-01
58		1.445439770745933e+00
	7.409410540875231e-01
59		1.513561248436214e+00
	7.409409102547285e-01
60		1.584893192461120e+00
	7.409407525452963e-01
61		1.659586907437567e+00
	7.409405796205000e-01
62		1.737800828749383e+00
	7.409403900124081e-01
63		1.819700858609991e+00
	7.409401821113510e-01
64		1.905460717963255e+00
	7.409399541526409e-01
65		1.995262314968888e+00
	7.409397042010611e-01
66		2.089296130854049e+00
	7.409394301348551e-01
67		2.187761623949563e+00
	7.409391296277088e-01
68		2.290867652767784e+00
	7.409388001285585e-01
69		2.398832919019502e+00
	7.409384388403275e-01
70		2.511886431509592e+00
	7.409380426964065e-01
71		2.630267991895395e+00
	7.409376083338828e-01
72		2.754228703338180e+00
	7.409371320656833e-01
73		2.884031503126621e+00
	7.409366098491620e-01
74		3.019951720402032e+00
	7.409360372513148e-01
75		3.162277660168396e+00
	7.409354094118796e-01
76		3.311311214825928e+00
	7.409347210014012e-01
77		3.467368504525334e+00
	7.409339661764867e-01
78		3.630780547701033e+00
	7.409331385301479e-01
79		3.801893963205632e+00
	7.409322310370893e-01
80		3.981071705534994e+00
	7.409312359946786e-01
81		4.168693834703377e+00
	7.409301449569743e-01
82		4.365158322401684e+00
	7.409289486633965e-01
83		4.570881896148776e+00
	7.409276369602202e-01
84		4.786300923226412e+00
	7.409261987143086e-01
85		5.011872336272753e+00
	7.409246217187272e-01
86		5.248074602497758e+00
	7.409228925888701e-01
87		5.495408738576280e+00
	7.409209966497738e-01
88		5.754399373371605e+00
	7.409189178104818e-01
89		6.025595860743615e+00
	7.409166384287470e-01
90		6.309573444801972e+00
	7.409141391605303e-01
91		6.606934480076003e+00
	7.409113987964256e-01
92		6.918309709189410e+00
	7.409083940819006e-01
93		7.244359600749949e+00
	7.409050995200096e-01
94		7.585775750291888e+00
	7.409014871551934e-01
95		7.943282347242868e+00
	7.408975263367187e-01
96		8.317637711026766e+00
	7.408931834586598e-01
97		8.709635899560865e+00
	7.408884216752047e-01
98		9.120108393559160e+00
	7.408832005891418e-01
99		9.549925860214426e+00
	7.408774759088377e-01
100		1.000000000000007e+01
	7.408711990743264e-01
101		1.047128548050907e+01
	7.408643168454934e-01
102		1.096478196143193e+01
	7.408567708520246e-01
103		1.148153621496891e+01
	7.408484970997536e-01
104		1.202264434617422e+01
	7.408394254293039e-01
105		1.258925411794177e+01
	7.408294789236630e-01
106		1.318256738556417e+01
	7.408185732574361e-01
107		1.380384264602895e+01
	7.408066159857234e-01
108		1.445439770745939e+01
	7.407935057634958e-01
109		1.513561248436220e+01
	7.407791314905608e-01
110		1.584893192461126e+01
	7.407633713754919e-01
111		1.659586907437574e+01
	7.407460919090665e-01
112		1.737800828749389e+01
	7.407271467406635e-01
113		1.819700858609998e+01
	7.407063754472388e-01
114		1.905460717963263e+01
	7.406836021850750e-01
115		1.995262314968896e+01
	7.406586342136877e-01
116		2.089296130854057e+01
	7.406312602795850e-01
117		2.187761623949572e+01
	7.406012488458383e-01
118		2.290867652767793e+01
	7.405683461559529e-01
119		2.398832919019511e+01
	7.405322741139115e-01
120		2.511886431509602e+01
	7.404927279638539e-01
121		2.630267991895405e+01
	7.404493737537707e-01
122		2.754228703338191e+01
	7.404018455588178e-01
123		2.884031503126632e+01
	7.403497424472359e-01
124		3.019951720402043e+01
	7.402926251623075e-01
125		3.162277660168408e+01
	7.402300124965154e-01
126		3.311311214825941e+01
	7.401613773303016e-01
127		3.467368504525349e+01
	7.400861423061991e-01
128		3.630780547701048e+01
	7.400036751061142e-01
129		3.801893963205648e+01
	7.399132832971645e-01
130		3.981071705535010e+01
	7.398142087114341e-01
131		4.168693834703394e+01
	7.397056213182394e-01
132		4.365158322401702e+01
	7.395866125479886e-01
133		4.570881896148795e+01
	7.394561880239765e-01
134		4.786300923226430e+01
	7.393132596538661e-01
135		5.011872336272772e+01
	7.391566370314799e-01
136		5.248074602497778e+01
	7.389850180980462e-01
137		5.495408738576300e+01
	7.387969790068433e-01
138		5.754399373371627e+01
	7.385909631365932e-01
139		6.025595860743638e+01
	7.383652691951221e-01
140		6.309573444801997e+01
	7.381180383550353e-01
141		6.606934480076028e+01
	7.378472403633995e-01
142		6.918309709189437e+01
	7.375506585659276e-01
143		7.244359600749976e+01
	7.372258737935252e-01
144		7.585775750291917e+01
	7.368702470547824e-01
145		7.943282347242899e+01
	7.364809009938396e-01
146		8.317637711026799e+01
	7.360547000699412e-01
147		8.709635899560901e+01
	7.355882294365895e-01
148		9.120108393559197e+01
	7.350777725053920e-01
149		9.549925860214464e+01
	7.345192871998986e-01
150		1.000000000000011e+02
	7.339083809323738e-01
151		1.047128548050911e+02
	7.332402843586066e-01
152		1.096478196143197e+02
	7.325098240088634e-01
153		1.148153621496896e+02
	7.317113939309354e-01
154		1.202264434617427e+02
	7.308389265386926e-01
155		1.258925411794182e+02
	7.298858629169955e-01
156		1.318256738556422e+02
	7.288451229117646e-01
157		1.380384264602901e+02
	7.277090754158253e-01
158		1.445439770745944e+02
	7.264695093603417e-01
159		1.513561248436226e+02
	7.251176060361300e-01
160		1.584893192461132e+02
	7.236439134904105e-01
161		1.659586907437580e+02
	7.220383238895247e-01
162		1.737800828749396e+02
	7.202900548890236e-01
163		1.819700858610005e+02
	7.183876362122674e-01
164		1.905460717963270e+02
	7.163189028212458e-01
165		1.995262314968904e+02
	7.140709962262471e-01
166		2.089296130854065e+02
	7.116303756624682e-01
167		2.187761623949579e+02
	7.089828410196093e-01
168		2.290867652767801e+02
	7.061135695465898e-01
169		2.398832919019520e+02
	7.030071684575862e-01
170		2.511886431509611e+02
	6.996477456154405e-01
171		2.630267991895415e+02
	6.960190004402493e-01
172		2.754228703338201e+02
	6.921043370832158e-01
173		2.884031503126642e+02
	6.878870016680894e-01
174		3.019951720402054e+02
	6.833502450376686e-01
175		3.162277660168419e+02
	6.784775119195162e-01
176		3.311311214825953e+02
	6.732526567204196e-01
177		3.467368504525360e+02
	6.676601852801196e-01
178		3.630780547701060e+02
	6.616855208516996e-01
179		3.801893963205661e+02
	6.553152913417656e-01
180		3.981071705535024e+02
	6.485376334819232e-01
181		4.168693834703408e+02
	6.413425081542636e-01
182		4.365158322401717e+02
	6.337220196325773e-01
183		4.570881896148811e+02
	6.256707301231046e-01
184		4.786300923226447e+02
	6.171859597955367e-01
185		5.011872336272790e+02
	6.082680616053128e-01
186		5.248074602497796e+02
	5.989206597404076e-01
187		5.495408738576319e+02
	5.891508405820510e-01
188		5.754399373371647e+02
	5.789692857370748e-01
189		6.025595860743659e+02
	5.683903380103553e-01
190		6.309573444802019e+02
	5.574319931490639e-01
191		6.606934480076051e+02
	5.461158127314777e-01
192		6.918309709189460e+02
	5.344667565829978e-01
193		7.244359600750001e+02
	5.225129363971742e-01
194		7.585775750291943e+02
	5.102852956292732e-01
195		7.943282347242927e+02
	4.978172239628030e-01
196		8.317637711026828e+02
	4.851441175120749e-01
197		8.709635899560930e+02
	4.723028982049052e-01
198		9.120108393559227e+02
	4.593315073402688e-01
199		9.549925860214496e+02
	4.462683890335286e-01
200		1.000000000000014e+03
	4.331519791313452e-01
201		1.047128548050915e+03
	4.200202142410359e-01
202		1.096478196143201e+03
	4.069100738915416e-01
203		1.148153621496899e+03
	3.938571666691746e-01
204		1.202264434617430e+03
	3.808953686478542e-01
205		1.258925411794186e+03
	3.680565197446866e-01
206		1.318256738556427e+03
	3.553701809592900e-01
207		1.380384264602905e+03
	3.428634529588628e-01
208		1.445439770745949e+03
	3.305608542719264e-01
209		1.513561248436231e+03
	3.184842555272762e-01
210		1.584893192461137e+03
	3.066528647767413e-01
211		1.659586907437586e+03
	2.950832579587689e-01
212		1.737800828749402e+03
	2.837894479928259e-01
213		1.819700858610011e+03
	2.727829857785786e-01
214		1.905460717963276e+03
	2.620730864694459e-01
215		1.995262314968910e+03
	2.516667747163890e-01
216		2.089296130854072e+03
	2.415690430864025e-01
217		2.187761623949587e+03
	2.317830184808743e-01
218		2.290867652767809e+03
	2.223101320617047e-01
219		2.398832919019528e+03
	2.131502889000033e-01
220		2.511886431509620e+03
	2.043020342484626e-01
221		2.630267991895424e+03
	1.957627139901955e-01
222		2.754228703338210e+03
	1.875286274070464e-01
223		2.884031503126652e+03
	1.795951709381507e-01
224		3.019951720402065e+03
	1.719569720522866e-01
225		3.162277660168430e+03
	1.646080127408295e-01
226		3.311311214825965e+03
	1.575417424536506e-01
227		3.467368504525373e+03
	1.507511805516467e-01
228		3.630780547701073e+03
	1.442290085461430e-01
229		3.801893963205674e+03
	1.379676525404449e-01
230		3.981071705535038e+03
	1.319593563947355e-01
231		4.168693834703423e+03
	1.261962462037610e-01
232		4.365158322401732e+03
	1.206703867165527e-01
233		4.570881896148827e+03
	1.153738303459661e-01
234		4.786300923226464e+03
	1.102986594139080e-01
235		5.011872336272808e+03
	1.054370222641112e-01
236		5.248074602497815e+03
	1.007811638496235e-01
237		5.495408738576340e+03
	9.632345137107834e-02
238		5.754399373371668e+03
	9.205639550498848e-02
239		6.025595860743681e+03
	8.797266772365918e-02
240		6.309573444802042e+03
	8.406511416746573e-02
241		6.606934480076075e+03
	8.032676649190960e-02
242		6.918309709189486e+03
	7.675085007174329e-02
243		7.244359600750028e+03
	7.333078990890890e-02
244		7.585775750291972e+03
	7.006021455466654e-02
245		7.943282347242956e+03
	6.693295832422128e-02
246		8.317637711026859e+03
	6.394306205162438e-02
247		8.709635899560963e+03
	6.108477260437804e-02
248		9.120108393559261e+03
	5.835254135233701e-02
249		9.549925860214533e+03
	5.574102176135311e-02
250		1.000000000000018e+04
	5.324506626231570e-02
251		1.047128548050919e+04
	5.085972252630986e-02
252		1.096478196143205e+04
	4.858022926057898e-02
253		1.148153621496904e+04
	4.640201162446273e-02
254		1.202264434617435e+04
	4.432067635124091e-02
255		1.258925411794191e+04
	4.233200665033819e-02
256		1.318256738556432e+04
	4.043195695308267e-02
257		1.380384264602911e+04
	3.861664755690383e-02
258		1.445439770745955e+04
	3.688235921398563e-02
259		1.513561248436237e+04
	3.522552770392565e-02
260		1.584893192461143e+04
	3.364273842309951e-02
261		1.659586907437592e+04
	3.213072101875782e-02
262		1.737800828749409e+04
	3.068634409035668e-02
263		1.819700858610018e+04
	2.930660997725018e-02
264		1.905460717963284e+04
	2.798864964779482e-02
265		1.995262314968918e+04
	2.672971770225126e-02
266		2.089296130854079e+04
	2.552718749888973e-02
267		2.187761623949595e+04
	2.437854641073429e-02
268		2.290867652767817e+04
	2.328139121823874e-02
269		2.398832919019537e+04
	2.223342364161798e-02
270		2.511886431509629e+04
	2.123244601520545e-02
271		2.630267991895433e+04
	2.027635710483226e-02
272		2.754228703338221e+04
	1.936314806850508e-02
273		2.884031503126663e+04
	1.849089855955045e-02
274		3.019951720402076e+04
	1.765777297084845e-02
275		3.162277660168443e+04
	1.686201681824735e-02
276		3.311311214825977e+04
	1.610195326059254e-02
277		3.467368504525386e+04
	1.537597975369443e-02
278		3.630780547701087e+04
	1.468256483499255e-02
279		3.801893963205689e+04
	1.402024503567350e-02
280		3.981071705535053e+04
	1.338762191669718e-02
281		4.168693834703439e+04
	1.278335922510581e-02
282		4.365158322401749e+04
	1.220618016690389e-02
283		4.570881896148844e+04
	1.165486479278594e-02
284		4.786300923226482e+04
	1.112824749291001e-02
285		5.011872336272826e+04
	1.062521459700295e-02
286		5.248074602497835e+04
	1.014470207607004e-02
287		5.495408738576360e+04
	9.685693342027164e-03
288		5.754399373371689e+04
	9.247217141711108e-03
289		6.025595860743703e+04
	8.828345541677109e-03
290		6.309573444802064e+04
	8.428192000422333e-03
291		6.606934480076098e+04
	8.045909524678131e-03
292		6.918309709189511e+04
	7.680688906524852e-03
293		7.244359600750054e+04
	7.331757038247955e-03
294		7.585775750291999e+04
	6.998375301922266e-03
295		7.943282347242985e+04
	6.679838030809708e-03
296		8.317637711026889e+04
	6.375471039851288e-03
297		8.709635899560995e+04
	6.084630222571083e-03
298		9.120108393559295e+04
	5.806700211878671e-03
299		9.549925860214567e+04
	5.541093102377527e-03
300		1.000000000000022e+05
	5.287247231888937e-03
301		1.047128548050922e+05
	5.044626020039046e-03
302		1.096478196143209e+05
	4.812716861874774e-03
303		1.148153621496908e+05
	4.591030074578064e-03
304		1.202264434617439e+05
	4.379097895484615e-03
305		1.258925411794195e+05
	4.176473529697800e-03
306		1.318256738556436e+05
	3.982730245705826e-03
307		1.380384264602916e+05
	3.797460517514018e-03
308		1.445439770745960e+05
	3.620275211843593e-03
309		1.513561248436242e+05
	3.450802819090646e-03
310		1.584893192461149e+05
	3.288688726714544e-03
311		1.659586907437598e+05
	3.133594533823988e-03
312		1.737800828749415e+05
	2.985197405699559e-03
313		1.819700858610025e+05
	2.843189466976279e-03
314		1.905460717963291e+05
	2.707277232172625e-03
315		1.995262314968925e+05
	2.577181072146105e-03
316		2.089296130854088e+05
	2.452634714905178e-03
317		2.187761623949603e+05
	2.333384779040706e-03
318		2.290867652767826e+05
	2.219190337782757e-03
319		2.398832919019546e+05
	2.109822511383479e-03
320		2.511886431509639e+05
	2.005064085180443e-03
321		2.630267991895443e+05
	1.904709150279098e-03
322		2.754228703338231e+05
	1.808562763332046e-03
323		2.884031503126674e+05
	1.716440621404051e-03
324		3.019951720402087e+05
	1.628168747413315e-03
325		3.162277660168454e+05
	1.543583181131641e-03
326		3.311311214825989e+05
	1.462529670298518e-03
327		3.467368504525398e+05
	1.384863356039139e-03
328		3.630780547701099e+05
	1.310448446563230e-03
329		3.801893963205702e+05
	1.239157873093976e-03
330		3.981071705535067e+05
	1.170872922211686e-03
331		4.168693834703453e+05
	1.105482839292110e-03
332		4.365158322401764e+05
	1.042884398618394e-03
333		4.570881896148860e+05
	9.829814369296211e-04
334		4.786300923226498e+05
	9.256843487976944e-04
335		5.011872336272844e+05
	8.709095441288200e-04
336		5.248074602497852e+05
	8.185788703106539e-04
337		5.495408738576378e+05
	7.686190039024324e-04
338		5.754399373371708e+05
	7.209608191867970e-04
339		6.025595860743723e+05
	6.755387432229859e-04
340		6.309573444802085e+05
	6.322901090434079e-04
341		6.606934480076120e+05
	5.911545201866587e-04
342		6.918309709189533e+05
	5.520732406725708e-04
343		7.244359600750078e+05
	5.149886247005999e-04
344		7.585775750292024e+05
	4.798435997037837e-04
345		7.943282347243010e+05
	4.465812149459866e-04
346		8.317637711026915e+05
	4.151442656528479e-04
347		8.709635899561022e+05
	3.854749998676045e-04
348		9.120108393559324e+05
	3.575149120137799e-04
349		9.549925860214598e+05
	3.312046237375999e-04
350		1.000000000000025e+06
	3.064838492442507e-04
351		1.047128548050926e+06
	2.832914392467873e-04
352		1.096478196143213e+06
	2.615654950085650e-04
353		1.148153621496912e+06
	2.412435419193720e-04
354		1.202264434617443e+06
	2.222627506853799e-04
355		1.258925411794199e+06
	2.045601935440579e-04
356		1.318256738556441e+06
	1.880731229259802e-04
357		1.380384264602920e+06
	1.727392605701988e-04
358		1.445439770745965e+06
	1.584970861667104e-04
359		1.513561248436247e+06
	1.452861160171406e-04
360		1.584893192461154e+06
	1.330471638331219e-04
361		1.659586907437604e+06
	1.217225775230550e-04
362		1.737800828749421e+06
	1.112564475279859e-04
363		1.819700858610031e+06
	1.015947838865854e-04
364		1.905460717963297e+06
	9.268566066164487e-05
365		1.995262314968932e+06
	8.447932761667567e-05
366		2.089296130854094e+06
	7.692829006557813e-05
367		2.187761623949610e+06
	6.998735863211166e-05
368		2.290867652767833e+06
	6.361367125829340e-05
369		2.398832919019554e+06
	5.776669021247064e-05
370		2.511886431509647e+06
	5.240817709378473e-05
371		2.630267991895452e+06
	4.750214893627707e-05
372		2.754228703338240e+06
	4.301481851187428e-05
373		2.884031503126683e+06
	3.891452183997705e-05
374		3.019951720402097e+06
	3.517163575667819e-05
375		3.162277660168464e+06
	3.175848819430037e-05
376		3.311311214826000e+06
	2.864926359001268e-05
377		3.467368504525410e+06
	2.581990558831176e-05
378		3.630780547701112e+06
	2.324801893774124e-05
379		3.801893963205715e+06
	2.091277221147893e-05
380		3.981071705535081e+06
	1.879480270969157e-05
381		4.168693834703468e+06
	1.687612463339575e-05
382		4.365158322401779e+06
	1.514004135829529e-05
383		4.570881896148875e+06
	1.357106238771487e-05
384		4.786300923226515e+06
	1.215482533040739e-05
385		5.011872336272861e+06
	1.087802303779384e-05
386		5.248074602497871e+06
	9.728335850141555e-06
387		5.495408738576398e+06
	8.694368747622867e-06
388		5.754399373371730e+06
	7.765593083251246e-06
389		6.025595860743746e+06
	6.932292491902558e-06
390		6.309573444802109e+06
	6.185512523205822e-06
391		6.606934480076145e+06
	5.517013533181056e-06
392		6.918309709189559e+06
	4.919226386156029e-06
393		7.244359600750105e+06
	4.385210558745798e-06
394		7.585775750292052e+06
	3.908614294770659e-06
395		7.943282347243040e+06
	3.483636526907928e-06
396		8.317637711026946e+06
	3.104990350873155e-06
397		8.709635899561055e+06
	2.767867905403842e-06
398		9.120108393559359e+06
	2.467906571530795e-06
399		9.549925860214634e+06
	2.201156454773142e-06
400		1.000000000000029e+07
	1.964049152176222e-06
401		1.047128548050930e+07
	1.753367832345002e-06
402		1.096478196143217e+07
	1.566218671478156e-06
403		1.148153621496916e+07
	1.400003693296365e-06
404		1.202264434617448e+07
	1.252395057676400e-06
405		1.258925411794204e+07
	1.121310833682945e-06
406		1.318256738556446e+07
	1.004892279623852e-06
407		1.380384264602925e+07
	9.014826374995322e-07
408		1.445439770745970e+07
	8.096074332787197e-07
409		1.513561248436253e+07
	7.279562590172028e-07
410		1.584893192461161e+07
	6.553659987392433e-07
411		1.659586907437610e+07
	5.908054478125272e-07
412		1.737800828749427e+07
	5.333612655295837e-07
413		1.819700858610038e+07
	4.822251928720826e-07
414		1.905460717963304e+07
	4.366824619180883e-07
415		1.995262314968939e+07
	3.961013199119140e-07
416		2.089296130854102e+07
	3.599235894361606e-07
417		2.187761623949618e+07
	3.276561861846033e-07
418		2.290867652767842e+07
	2.988635172642132e-07
419		2.398832919019562e+07
	2.731606855438665e-07
420		2.511886431509656e+07
	2.502074290671981e-07
421		2.630267991895461e+07
	2.297027287472958e-07
422		2.754228703338250e+07
	2.113800222505296e-07
423		2.884031503126694e+07
	1.950029669325385e-07
424		3.019951720402108e+07
	1.803616997013006e-07
425		3.162277660168476e+07
	1.672695465233067e-07
426		3.311311214826012e+07
	1.555601387446809e-07
427		3.467368504525422e+07
	1.450848972808249e-07
428		3.630780547701125e+07
	1.357108488919896e-07
429		3.801893963205729e+07
	1.273187411547587e-07
430		3.981071705535095e+07
	1.198014244035326e-07
431		4.168693834703483e+07
	1.130624700149404e-07
432		4.365158322401795e+07
	1.070149951974566e-07
433		4.570881896148892e+07
	1.015806652436380e-07
434		4.786300923226532e+07
	9.668884530878203e-08
435		5.011872336272878e+07
	9.227587543310255e-08
436		5.248074602497889e+07
	8.828444483418939e-08
437		5.495408738576417e+07
	8.466304442750439e-08
438		5.754399373371749e+07
	8.136547991736204e-08
439		6.025595860743766e+07
	7.835043138549283e-08
440		6.309573444802130e+07
	7.558104880783598e-08
441		6.606934480076168e+07
	7.302457610219748e-08
442		6.918309709189583e+07
	7.065199897033681e-08
443		7.244359600750130e+07
	6.843771385698071e-08
444		7.585775750292079e+07
	6.635921679806892e-08
445		7.943282347243069e+07
	6.439681182845227e-08
446		8.317637711026977e+07
	6.253333906203475e-08
447		8.709635899561086e+07
	6.075392265618464e-08
448		9.120108393559392e+07
	5.904573873533760e-08
449		9.549925860214669e+07
	5.739780306953206e-08
450		1.000000000000032e+08
	5.580077795737397e-08