Title: Title - Hybrid-Pi model of 3.3 Volt Regulator
Date: Mon Aug  6 11:26:59 EDT 1990
Plotname: acan
Flags: complex
No. Variables: 17
No. Points: 451     
Command: version SPICE 3c1
Variables:
	0	frequency	frequency
	1	V(5)	voltage
	2	V(9)	voltage
	3	V(10)	voltage
	4	V(8)	voltage
	5	V(12)	voltage
	6	V(11)	voltage
	7	V(3)	voltage
	8	V(4)	voltage
	9	V(2)	voltage
	10	V(6)	voltage
	11	V(13)	voltage
	12	V(14)	voltage
	13	V(15)	voltage
	14	V(7)	voltage
	15	V(1)	voltage
	16	vin#branch	current
Values:
0		1.000000000000000e-01,2.154997069506364e-307
	9.999999999999999e-01,0.000000000000000e+00
	7.425007000051710e-01,-1.026727767643466e-04
	-2.266887328721744e+01,-3.944891781419507e-03
	-2.268784545019595e+01,-3.948192020783784e-03
	7.409425306315460e-01,-1.029477954190787e-04
	7.422281046609950e-01,-1.027240544245554e-04
	-2.268844906764045e+01,-3.948318097914017e-03
	9.973195945845363e-01,-4.837813630606141e-07
	9.983665905268233e-01,-2.857127655875708e-07
	7.192242097058340e-01,-4.890598668239547e-05
	-1.397420997070855e-01,-2.432364407054401e-05
	-1.891710243487374e-01,-3.292356865930821e-05
	-1.397807196810510e-01,-2.432491955476874e-05
	6.785145104003905e-01,-5.599620070304962e-05
	9.993859362882794e-01,-1.074108141306657e-07
	-1.228127423440889e-05,-2.148216282613314e-09
1		1.047128548050900e-01,2.154997069506364e-307
	9.999999999999999e-01,0.000000000000000e+00
	7.425006986379917e-01,-1.075115954589275e-04
	-2.266887333985190e+01,-4.130808795647025e-03
	-2.268784550287451e+01,-4.134264570494352e-03
	7.409425292607910e-01,-1.077995753430278e-04
	7.422281032932454e-01,-1.075652897607271e-04
	-2.268844912032005e+01,-4.134396589456525e-03
	9.973195945789440e-01,-5.065812754628197e-07
	9.983665905233643e-01,-2.991779928865489e-07
	7.192242090546670e-01,-5.121085473110821e-05
	-1.397421000316304e-01,-2.546998205173355e-05
	-1.891710247879144e-01,-3.447520858305534e-05
	-1.397807200056094e-01,-2.547131764767589e-05
	6.785145096548122e-01,-5.863522023020642e-05
	9.993859362869790e-01,-1.124729296565973e-07
	-1.228127426041586e-05,-2.249458593131946e-09
2		1.096478196143185e-01,2.154997069506364e-307
	9.999999999999999e-01,0.000000000000000e+00
	7.425006971372551e-01,-1.125784606231808e-04
	-2.266887339762949e+01,-4.325487807670537e-03
	-2.268784556070050e+01,-4.329106448161441e-03
	7.409425277562274e-01,-1.128800125804934e-04
	7.422281017918990e-01,-1.126346854593682e-04
	-2.268844917814717e+01,-4.329244688985444e-03
	9.973195945728054e-01,-5.304557145107558e-07
	9.983665905195672e-01,-3.132778167221955e-07
	7.192242083399353e-01,-5.362434785026759e-05
	-1.397421003878880e-01,-2.667034527050744e-05
	-1.891710252700055e-01,-3.609997503397352e-05
	-1.397807203618818e-01,-2.667174381114507e-05
	6.785145088364531e-01,-6.139861289976815e-05
	9.993859362855514e-01,-1.177736153090960e-07
	-1.228127428896941e-05,-2.355472306181921e-09
3		1.148153621496883e-01,2.154997069506364e-307
	9.999999999999999e-01,0.000000000000000e+00
	7.425006954823010e-01,-1.178841197504330e-04
	-2.266887346133296e+01,-4.529341757505281e-03
	-2.268784562445735e+01,-4.533130939259934e-03
	7.409425260969168e-01,-1.181998834129705e-04
	7.422281001362500e-01,-1.179429943814050e-04
	-2.268844924190528e+01,-4.533275695173053e-03
	9.973195945660330e-01,-5.554553210618539e-07
	9.983665905153792e-01,-3.280421446934938e-07
	7.192242075516926e-01,-5.615158537902164e-05
	-1.397421007806845e-01,-2.792727985652130e-05
	-1.891710258015419e-01,-3.780131435728569e-05
	-1.397807207546948e-01,-2.792874430834596e-05
	6.785145079339248e-01,-6.429224023425678e-05
	9.993859362839771e-01,-1.233241145464262e-07
	-1.228127432045464e-05,-2.466482290928525e-09
4		1.202264434617413e-01,2.154997069506364e-307
	9.999999999999999e-01,0.000000000000000e+00
	7.425006936672170e-01,-1.234398268496534e-04
	-2.266887353121938e+01,-4.742803046502741e-03
	-2.268784569440232e+01,-4.746770806882023e-03
	7.409425242770596e-01,-1.237704719943469e-04
	7.422280983204044e-01,-1.235014761563747e-04
	-2.268844931185163e+01,-4.746922384930920e-03
	9.973195945586035e-01,-5.816331226114473e-07
	9.983665905107844e-01,-3.435022939059651e-07
	7.192242066871828e-01,-5.879792792443847e-05
	-1.397421012116053e-01,-2.924345193527409e-05
	-1.891710263846683e-01,-3.958283532006957e-05
	-1.397807211856336e-01,-2.924498540458394e-05
	6.785145069440718e-01,-6.732224000226946e-05
	9.993859362822497e-01,-1.291362007165282e-07
	-1.228127435500340e-05,-2.582724014330565e-09
5		1.258925411794168e-01,2.154997069506364e-307
	9.999999999999999e-01,0.000000000000000e+00
	7.425006916757236e-01,-1.292573663128082e-04
	-2.266887360787684e+01,-4.966324454381027e-03
	-2.268784577112402e+01,-4.970479209534776e-03
	7.409425222804521e-01,-1.296035942821873e-04
	7.422280963280954e-01,-1.293219210616996e-04
	-2.268844938857483e+01,-4.970637931236769e-03
	9.973195945504535e-01,-6.090446457547382e-07
	9.983665905057444e-01,-3.596910573894146e-07
	7.192242057387094e-01,-6.156898873021066e-05
	-1.397421016842764e-01,-3.062165328238745e-05
	-1.891710270242916e-01,-4.144831676467751e-05
	-1.397807216583243e-01,-3.062325902187591e-05
	6.785145058580814e-01,-7.049503923537697e-05
	9.993859362803550e-01,-1.352222020260957e-07
	-1.228127439289670e-05,-2.704444040521915e-09
6		1.318256738556408e-01,2.154997069506364e-307
	9.999999999999999e-01,0.000000000000000e+00
	7.425006894914643e-01,-1.353490779123998e-04
	-2.266887369197181e+01,-5.200380099682090e-03
	-2.268784585528944e+01,-5.204730662400852e-03
	7.409425200905195e-01,-1.357116231022322e-04
	7.422280941429311e-01,-1.354166750327106e-04
	-2.268844947274192e+01,-5.204896864425902e-03
	9.973195945415131e-01,-6.377480339722846e-07
	9.983665905002156e-01,-3.766427736598588e-07
	7.192242046983982e-01,-6.447064558370075e-05
	-1.397421022028073e-01,-3.206480724564897e-05
	-1.891710277259732e-01,-4.340171562459120e-05
	-1.397807221768769e-01,-3.206648866130412e-05
	6.785145046669379e-01,-7.381736786140947e-05
	9.993859362782764e-01,-1.415950276916762e-07
	-1.228127443446761e-05,-2.831900553833525e-09
7		1.380384264602885e-01,2.154997069506364e-307
	9.999999999999999e-01,0.000000000000000e+00
	7.425006871198654e-01,-1.417278829800805e-04
	-2.266887378327078e+01,-5.445466445601887e-03
	-2.268784594666491e+01,-5.450022044010135e-03
	7.409425177127014e-01,-1.421075143971324e-04
	7.422280917703407e-01,-1.417986658543358e-04
	-2.268844956411918e+01,-5.450196078894963e-03
	9.973195945318144e-01,-6.678041709767129e-07
	9.983665904942161e-01,-3.943933995665742e-07
	7.192242035688335e-01,-6.750905328556436e-05
	-1.397421027657582e-01,-3.357597494681851e-05
	-1.891710284877632e-01,-4.544717531895275e-05
	-1.397807227398513e-01,-3.357773560514765e-05
	6.785145033736001e-01,-7.729627298188105e-05
	9.993859362760210e-01,-1.482681953257798e-07
	-1.228127447957736e-05,-2.965363906515595e-09
8		1.445439770745928e-01,2.154997069506364e-307
	9.999999999999999e-01,0.000000000000000e+00
	7.425006845002534e-01,-1.484073117977557e-04
	-2.266887388411119e+01,-5.702103352413142e-03
	-2.268784604758983e+01,-5.706873649542921e-03
	7.409425150863395e-01,-1.488048346909226e-04
	7.422280891496523e-01,-1.484814305658838e-04
	-2.268844966504609e+01,-5.707055886438784e-03
	9.973195945210951e-01,-6.992768097869934e-07
	9.983665904875871e-01,-4.129805865192169e-07
	7.192242023212001e-01,-7.069065669691869e-05
	-1.397421033875418e-01,-3.515836177071785e-05
	-1.891710293291669e-01,-4.758903453595355e-05
	-1.397807233616608e-01,-3.516020540631244e-05
	6.785145019450749e-01,-8.093913381068968e-05
	9.993859362735290e-01,-1.552558595936905e-07
	-1.228127452941596e-05,-3.105117191873811e-09
9		1.513561248436209e-01,2.154997069506364e-307
	9.999999999999999e-01,0.000000000000000e+00
	7.425006816265545e-01,-1.554015323193141e-04
	-2.266887399475023e+01,-5.970835181007787e-03
	-2.268784615832156e+01,-5.975830295295593e-03
	7.409425122051653e-01,-1.558177898876847e-04
	7.422280862747610e-01,-1.554791441971173e-04
	-2.268844977577999e+01,-5.976021120751302e-03
	9.973195945093346e-01,-7.322327080479064e-07
	9.983665904803134e-01,-4.324437604074089e-07
	7.192242009525196e-01,-7.402220442032503e-05
	-1.397421040697438e-01,-3.681532416951716e-05
	-1.891710302523296e-01,-4.983183644285834e-05
	-1.397807240438913e-01,-3.681725469297450e-05
	6.785145003779526e-01,-8.475367733851928e-05
	9.993859362707944e-01,-1.625728422584244e-07
	-1.228127458410833e-05,-3.251456845168489e-09
10		1.584893192461115e-01,2.154997069506364e-307
	9.999999999999999e-01,0.000000000000000e+00
	7.425006784737237e-01,-1.627253802088995e-04
	-2.266887411611811e+01,-6.252231947044027e-03
	-2.268784627979112e+01,-6.257462473793196e-03
	7.409425090441679e-01,-1.631612553902813e-04
	7.422280831206278e-01,-1.628066498215279e-04
	-2.268844989725195e+01,-6.257662292575037e-03
	9.973195944964324e-01,-7.667417695761303e-07
	9.983665904723347e-01,-4.528242051942563e-07
	7.192241994509116e-01,-7.751076310788000e-05
	-1.397421048181001e-01,-3.855037677904244e-05
	-1.891710312650129e-01,-5.218033831837202e-05
	-1.397807247922787e-01,-3.855239828526043e-05
	6.785144986586298e-01,-8.874799471526656e-05
	9.993859362677950e-01,-1.702346636068633e-07
	-1.228127464409506e-05,-3.404693272137266e-09
11		1.659586907437562e-01,2.154997069506364e-307
	9.999999999999999e-01,0.000000000000000e+00
	7.425006750074467e-01,-1.703943903107931e-04
	-2.266887424956617e+01,-6.546890530050768e-03
	-2.268784641335100e+01,-6.552367563905416e-03
	7.409425055688418e-01,-1.708508076545309e-04
	7.422280796529068e-01,-1.704794900419346e-04
	-2.268845003081446e+01,-6.552576799855714e-03
	9.973195944822434e-01,-8.028771926395676e-07
	9.983665904635602e-01,-4.741651504870593e-07
	7.192241977999837e-01,-8.116373245122080e-05
	-1.397421056409429e-01,-4.036719987394198e-05
	-1.891710323784926e-01,-5.463952164367237e-05
	-1.397807256151559e-01,-4.036931665080500e-05
	6.785144967683376e-01,-9.293055841324345e-05
	9.993859362644962e-01,-1.782575753710749e-07
	-1.228127471007354e-05,-3.565151507421498e-09
12		1.737800828749377e-01,2.154997069506364e-307
	9.999999999999999e-01,0.000000000000000e+00
	7.425006712212145e-01,-1.784248296090204e-04
	-2.266887439532928e+01,-6.855435939827242e-03
	-2.268784655923623e+01,-6.861171098305628e-03
	7.409425017727785e-01,-1.789027572371017e-04
	7.422280758651068e-01,-1.785139399665519e-04
	-2.268845017670256e+01,-6.861390195241772e-03
	9.973195944667473e-01,-8.407156252564065e-07
	9.983665904539777e-01,-4.965118632552808e-07
	7.192241959966913e-01,-8.498886088113231e-05
	-1.397421065397205e-01,-4.226964717612734e-05
	-1.891710335947275e-01,-5.721460267162080e-05
	-1.397807265139710e-01,-4.227186371360143e-05
	6.785144947035903e-01,-9.731024020285652e-05
	9.993859362608938e-01,-1.866585952087522e-07
	-1.228127478212007e-05,-3.733171904175043e-09
13		1.819700858609985e-01,2.154997069506364e-307
	9.999999999999999e-01,0.000000000000000e+00
	7.425006670680762e-01,-1.868337317158410e-04
	-2.266887455519977e+01,-7.178522641548989e-03
	-2.268784671924067e+01,-7.184528089685471e-03
	7.409424976088832e-01,-1.873341833763825e-04
	7.422280717102530e-01,-1.869270417147048e-04
	-2.268845033671016e+01,-7.184757512341302e-03
	9.973195944497524e-01,-8.803373277068326e-07
	9.983665904434678e-01,-5.199117438063423e-07
	7.192241940186640e-01,-8.899426199540226e-05
	-1.397421075254845e-01,-4.426175402518902e-05
	-1.891710349286732e-01,-5.991104348593071e-05
	-1.397807274997761e-01,-4.426407502484557e-05
	6.785144924387733e-01,-1.018963299621140e-04
	9.993859362569427e-01,-1.954555427843392e-07
	-1.228127486114367e-05,-3.909110855686783e-09
14		1.905460717963249e-01,2.154997069506364e-307
	9.999999999999999e-01,0.000000000000000e+00
	7.425006625281061e-01,-1.956389330179973e-04
	-2.266887472998205e+01,-7.516835944575603e-03
	-2.268784689416941e+01,-7.523124420724427e-03
	7.409424930570875e-01,-1.961629702355511e-04
	7.422280671683971e-01,-1.957366405811288e-04
	-2.268845051164234e+01,-7.523364655736007e-03
	9.973195944311785e-01,-9.218263428442254e-07
	9.983665904319797e-01,-5.444144263683589e-07
	7.192241918563675e-01,-9.318843177631651e-05
	-1.397421086031949e-01,-4.634774594158837e-05
	-1.891710363870411e-01,-6.273456359198050e-05
	-1.397807285775314e-01,-4.635017632657688e-05
	6.785144899629703e-01,-1.066985553902508e-04
	9.993859362526238e-01,-2.046670775820898e-07
	-1.228127494751902e-05,-4.093341551641796e-09
15		1.995262314968882e-01,2.154997069506364e-307
	9.999999999999999e-01,0.000000000000000e+00
	7.425006575220799e-01,-2.048591104871054e-04
	-2.266887492268996e+01,-7.871093455216428e-03
	-2.268784708703879e+01,-7.877678298070885e-03
	7.409424880380608e-01,-2.054078448142461e-04
	7.422280621602969e-01,-2.049614228652467e-04
	-2.268845070451552e+01,-7.877929855008702e-03
	9.973195944106892e-01,-9.652706742656696e-07
	9.983665904193093e-01,-5.700718843132596e-07
	7.192241894721169e-01,-9.758026660083295e-05
	-1.397421097914348e-01,-4.853204758420515e-05
	-1.891710379949799e-01,-6.569115204141421e-05
	-1.397807297658210e-01,-4.853459250969564e-05
	6.785144872330323e-01,-1.117271026289531e-04
	9.993859362478605e-01,-2.143127384636314e-07
	-1.228127504278656e-05,-4.286254769272629e-09
16		2.089296130854042e-01,2.154997069506364e-307
	9.999999999999999e-01,0.000000000000000e+00
	7.425006520637060e-01,-2.145138213366766e-04
	-2.266887513283627e+01,-8.242046600399993e-03
	-2.268784729736116e+01,-8.248941777286274e-03
	7.409424825654622e-01,-2.150884167118096e-04
	7.422280566996546e-01,-2.146209555479918e-04
	-2.268845091484203e+01,-8.249205189736122e-03
	9.973195943883574e-01,-1.010762473143783e-06
	9.983665904054967e-01,-5.969385405002464e-07
	7.192241868723996e-01,-1.021790821303540e-04
	-1.397421110872003e-01,-5.081929214506759e-05
	-1.891710397484221e-01,-6.878708014849131e-05
	-1.397807310616405e-01,-5.082195700918567e-05
	6.785144842563881e-01,-1.169926378907025e-04
	9.993859362426679e-01,-2.244129851504686e-07
	-1.228127514663752e-05,-4.488259703009372e-09
17		2.187761623949555e-01,2.154997069506364e-307
	9.999999999999999e-01,0.000000000000000e+00
	7.425006460578779e-01,-2.246235444496090e-04
	-2.266887536404931e+01,-8.630482219444994e-03
	-2.268784752876792e+01,-8.637702355947657e-03
	7.409424765440613e-01,-2.252252196657518e-04
	7.422280506913429e-01,-2.247357277399947e-04
	-2.268845114625334e+01,-8.637978182642423e-03
	9.973195943637790e-01,-1.058398233466195e-06
	9.983665903902967e-01,-6.250713825751880e-07
	7.192241840119781e-01,-1.069946330438337e-04
	-1.397421125128636e-01,-5.321433116398662e-05
	-1.891710416776441e-01,-7.202891477481043e-05
	-1.397807324873632e-01,-5.321712161926330e-05
	6.785144809812403e-01,-1.225063300527169e-04
	9.993859362369536e-01,-2.349892415696195e-07
	-1.228127526092457e-05,-4.699784831392391e-09
18		2.290867652767776e-01,2.154997069506364e-307
	9.999999999999999e-01,0.000000000000000e+00
	7.425006394768766e-01,-2.352097238652681e-04
	-2.266887561739343e+01,-9.037224234878254e-03
	-2.268784778232432e+01,-9.044784645863528e-03
	7.409424699459553e-01,-2.358397551553106e-04
	7.422280441076134e-01,-2.353271941903785e-04
	-2.268845139981473e+01,-9.045073471868345e-03
	9.973195943368465e-01,-1.108278996909203e-06
	9.983665903736415e-01,-6.545300839696404e-07
	7.192241808775961e-01,-1.120371337519164e-04
	-1.397421140749874e-01,-5.572224483058303e-05
	-1.891710437915257e-01,-7.542353227374141e-05
	-1.397807340495522e-01,-5.572516679594460e-05
	6.785144773924118e-01,-1.282798743741516e-04
	9.993859362306923e-01,-2.460639413419701e-07
	-1.228127538615079e-05,-4.921278826839402e-09
19		2.398832919019494e-01,2.154997069506364e-307
	9.999999999999999e-01,0.000000000000000e+00
	7.425006322579391e-01,-2.462948142351584e-04
	-2.266887589529687e+01,-9.463135398957384e-03
	-2.268784806046062e+01,-9.471052121057541e-03
	7.409424627082960e-01,-2.469545379788843e-04
	7.422280368856901e-01,-2.464178207651349e-04
	-2.268845167795651e+01,-9.471354559010783e-03
	9.973195943073050e-01,-1.160510567035203e-06
	9.983665903553722e-01,-6.853771304010348e-07
	7.192241774394004e-01,-1.173172800487777e-04
	-1.397421157885444e-01,-5.834835275309867e-05
	-1.891710461103284e-01,-7.897813306668521e-05
	-1.397807357631807e-01,-5.835141242642138e-05
	6.785144734557198e-01,-1.343255172869459e-04
	9.993859362238240e-01,-2.576605753387349e-07
	-1.228127552351660e-05,-5.153211506774698e-09
20		2.511886431509583e-01,2.154997069506364e-307
	9.999999999999999e-01,0.000000000000000e+00
	7.425006243546830e-01,-2.579023284673410e-04
	-2.266887619955413e+01,-9.909119124253546e-03
	-2.268784836497280e+01,-9.917408949882734e-03
	7.409424547844548e-01,-2.585931440260660e-04
	7.422280289791509e-01,-2.580311321153348e-04
	-2.268845198247469e+01,-9.917725641295498e-03
	9.973195942749669e-01,-1.215203733783998e-06
	9.983665903353720e-01,-7.176779524520545e-07
	7.192241736752389e-01,-1.228462718065266e-04
	-1.397421176645995e-01,-6.109822524551068e-05
	-1.891710486490246e-01,-8.270025692088537e-05
	-1.397807376393140e-01,-6.110142911676733e-05
	6.785144691458008e-01,-1.406560823803774e-04
	9.993859362163051e-01,-2.698037415233288e-07
	-1.228127567389284e-05,-5.396074830466576e-09
21		2.630267991895386e-01,2.154997069506364e-307
	9.999999999999999e-01,0.000000000000000e+00
	7.425006156667135e-01,-2.700568875755663e-04
	-2.266887653400975e+01,-1.037612139895389e-02
	-2.268784869970866e+01,-1.038480191192628e-02
	7.409424460740710e-01,-2.707802602603067e-04
	7.422280202876068e-01,-2.701917615511599e-04
	-2.268845231721715e+01,-1.038513352854310e-02
	9.973195942394073e-01,-1.272474508368552e-06
	9.983665903133827e-01,-7.515010642942280e-07
	7.192241695374346e-01,-1.286358367197779e-04
	-1.397421197268581e-01,-6.397769513701490e-05
	-1.891710514396941e-01,-8.659779893430208e-05
	-1.397807397016587e-01,-6.398105000204062e-05
	6.785144644080663e-01,-1.472849975880379e-04
	9.993859362080386e-01,-2.825191971030932e-07
	-1.228127583922586e-05,-5.650383942061865e-09
22		2.754228703338171e-01,2.154997069506364e-307
	9.999999999999999e-01,0.000000000000000e+00
	7.425006061615288e-01,-2.827842729448370e-04
	-2.266887689993443e+01,-1.086513279501346e-02
	-2.268784906593994e+01,-1.087422240784139e-02
	7.409424365440948e-01,-2.835417371244705e-04
	7.422280107784679e-01,-2.829255033335652e-04
	-2.268845268345563e+01,-1.087456965306512e-02
	9.973195942005137e-01,-1.332444369513362e-06
	9.983665902893288e-01,-7.869182091188054e-07
	7.192241650102912e-01,-1.346982552012328e-04
	-1.397421219831554e-01,-6.699287015400645e-05
	-1.891710544929380e-01,-9.067902629539158e-05
	-1.397807419580501e-01,-6.699638312891376e-05
	6.785144592245423e-01,-1.542263236926860e-04
	9.993859361989956e-01,-2.958339132025584e-07
	-1.228127602008466e-05,-5.916678264051168e-09
23		2.884031503126611e-01,2.154997069506364e-307
	9.999999999999999e-01,0.000000000000000e+00
	7.425005957492454e-01,-2.961114809727398e-04
	-2.266887730078619e+01,-1.137719056758235e-02
	-2.268784946712756e+01,-1.138670856053077e-02
	7.409424261046611e-01,-2.969046433285339e-04
	7.422280003618547e-01,-2.962593673429031e-04
	-2.268845308465114e+01,-1.138707217091455e-02
	9.973195941579109e-01,-1.395240520954744e-06
	9.983665902629795e-01,-8.240045112031230e-07
	7.192241600511163e-01,-1.410463864089185e-04
	-1.397421244548138e-01,-7.015014586484968e-05
	-1.891710578376100e-01,-9.495259580466287e-05
	-1.397807444298115e-01,-7.015382440112247e-05
	6.785144535463478e-01,-1.614947841268207e-04
	9.993859361890899e-01,-3.097761320312492e-07
	-1.228127621820049e-05,-6.195522640624984e-09
24		3.019951720402022e-01,2.154997069506364e-307
	9.999999999999999e-01,0.000000000000000e+00
	7.425005842838894e-01,-3.100667803268569e-04
	-2.266887774216342e+01,-1.191338085493512e-02
	-2.268784990887461e+01,-1.192334741691656e-02
	7.409424146096565e-01,-3.108973232603651e-04
	7.422279888917693e-01,-3.102216363649320e-04
	-2.268845352640690e+01,-1.192372816372614e-02
	9.973195941109811e-01,-1.460996161228470e-06
	9.983665902339595e-01,-8.628386352434280e-07
	7.192241545904992e-01,-1.476936955195315e-04
	-1.397421271763526e-01,-7.345621924433201e-05
	-1.891710615204250e-01,-9.942757223501212e-05
	-1.397807471514640e-01,-7.346007114463071e-05
	6.785144472940086e-01,-1.691057962000171e-04
	9.993859361781802e-01,-3.243754267832436e-07
	-1.228127643639401e-05,-6.487508535664873e-09
25		3.162277660168385e-01,2.154997069506364e-307
	9.999999999999999e-01,0.000000000000000e+00
	7.425005717652945e-01,-3.246797719884064e-04
	-2.266887822409664e+01,-1.247484098549720e-02
	-2.268785039121162e+01,-1.248527725689666e-02
	7.409424020584585e-01,-3.255494571901927e-04
	7.422279763679750e-01,-3.248419261644372e-04
	-2.268845400875340e+01,-1.248567594774639e-02
	9.973195940597612e-01,-1.529850766534922e-06
	9.983665902022810e-01,-9.035029534215153e-07
	7.192241486281469e-01,-1.546542823289407e-04
	-1.397421301479606e-01,-7.691810289846178e-05
	-1.891710655416337e-01,-1.041134475858667e-04
	-1.397807501231958e-01,-7.692213633317438e-05
	6.785144404671879e-01,-1.770755038458282e-04
	9.993859361662710e-01,-3.396627644441787e-07
	-1.228127667457501e-05,-6.793255288883575e-09
26		3.311311214825917e-01,2.154997069506364e-307
	9.999999999999999e-01,0.000000000000000e+00
	7.425005580048446e-01,-3.399814519000351e-04
	-2.266887875382917e+01,-1.306276188487004e-02
	-2.268785092138801e+01,-1.307369000238364e-02
	7.409423882623654e-01,-3.408921240862158e-04
	7.422279626018403e-01,-3.401512481643230e-04
	-2.268845453894023e+01,-1.307410748294945e-02
	9.973195940034453e-01,-1.601950386023885e-06
	9.983665901674550e-01,-9.460837197741882e-07
	7.192241420744148e-01,-1.619429110931370e-04
	-1.397421334142997e-01,-8.054313990584410e-05
	-1.891710699616770e-01,-1.090201611719242e-04
	-1.397807533896711e-01,-8.054736343041579e-05
	6.785144329632453e-01,-1.854208117889654e-04
	9.993859361531784e-01,-3.556705713436798e-07
	-1.228127693642805e-05,-7.113411426873595e-09
27		3.467368504525323e-01,2.154997069506364e-307
	9.999999999999999e-01,0.000000000000000e+00
	7.425005429425978e-01,-3.560042768441308e-04
	-2.266887933368157e+01,-1.367839060700834e-02
	-2.268785150172625e+01,-1.368983375059950e-02
	7.409423731608871e-01,-3.569578676693678e-04
	7.422279475333367e-01,-3.561820753568167e-04
	-2.268845511928990e+01,-1.369027090641272e-02
	9.973195939418140e-01,-1.677447952109782e-06
	9.983665901293383e-01,-9.906712534801102e-07
	7.192241349005708e-01,-1.695750419079498e-04
	-1.397421369896787e-01,-8.433901942456205e-05
	-1.891710747999152e-01,-1.141581207480282e-04
	-1.397807569651993e-01,-8.434344199764270e-05
	6.785144247492817e-01,-1.941594214743373e-04
	9.993859361388489e-01,-3.724328020601919e-07
	-1.228127722301825e-05,-7.448656041203837e-09
28		3.630780547701021e-01,2.154997069506364e-307
	9.999999999999999e-01,0.000000000000000e+00
	7.425005264007229e-01,-3.727822331763859e-04
	-2.266887997050004e+01,-1.432303297509561e-02
	-2.268785213907829e+01,-1.433501541716049e-02
	7.409423565760531e-01,-3.737807653309981e-04
	7.422279309846098e-01,-3.729684110713676e-04
	-2.268845575665449e+01,-1.433547317548614e-02
	9.973195938741157e-01,-1.756503604419809e-06
	9.983665900874726e-01,-1.037360130159396e-06
	7.192241270220683e-01,-1.775668634488253e-04
	-1.397421409163114e-01,-8.831379297544013e-05
	-1.891710801134744e-01,-1.195382245495899e-04
	-1.397807608919958e-01,-8.831842397788622e-05
	6.785144157284932e-01,-2.033098685533194e-04
	9.993859361231100e-01,-3.899850113381186e-07
	-1.228127753779770e-05,-7.799700226762372e-09
29		3.801893963205620e-01,2.154997069506364e-307
	9.999999999999999e-01,0.000000000000000e+00
	7.425005082870372e-01,-3.903509090075646e-04
	-2.266888066783861e+01,-1.499805635495836e-02
	-2.268785283700114e+01,-1.501060351181158e-02
	7.409423384152597e-01,-3.913965005079779e-04
	7.422279128634109e-01,-3.905458611924569e-04
	-2.268845645459108e+01,-1.501108284361522e-02
	9.973195937999955e-01,-1.839285029836088e-06
	9.983665900416320e-01,-1.086249382713910e-06
	7.192241183949191e-01,-1.859353273530620e-04
	-1.397421452161121e-01,-9.247589154252469e-05
	-1.891710859320073e-01,-1.251718844391466e-04
	-1.397807651919759e-01,-9.248074079729746e-05
	6.785144058505131e-01,-2.128915622506050e-04
	9.993859361058764e-01,-4.083644295916954e-07
	-1.228127788246644e-05,-8.167288591833908e-09
30		3.981071705534981e-01,2.154997069506364e-307
	9.999999999999999e-01,0.000000000000000e+00
	7.425004883981177e-01,-4.087475695907039e-04
	-2.266888143350684e+01,-1.570489255150978e-02
	-2.268785360331092e+01,-1.571803103729321e-02
	7.409423184747326e-01,-4.098424382718405e-04
	7.422278929662603e-01,-4.089517095844579e-04
	-2.268845722091594e+01,-1.571853295930047e-02
	9.973195937186026e-01,-1.925967817781349e-06
	9.983665899912960e-01,-1.137442711134440e-06
	7.192241089223205e-01,-1.946981841289032e-04
	-1.397421499372345e-01,-9.683414343214440e-05
	-1.891710923206781e-01,-1.310710500797223e-04
	-1.397807699132952e-01,-9.683922122514497e-05
	6.785143950045037e-01,-2.229248264792673e-04
	9.993859360869534e-01,-4.276100417798648e-07
	-1.228127826092759e-05,-8.552200835597296e-09
31		4.168693834703363e-01,2.154997069506364e-307
	9.999999999999999e-01,0.000000000000000e+00
	7.425004666115711e-01,-4.280112364603906e-04
	-2.266888227221610e+01,-1.644504084952608e-02
	-2.268785444272292e+01,-1.645879853266149e-02
	7.409422966316075e-01,-4.291577046800323e-04
	7.422278711706902e-01,-4.282249972704280e-04
	-2.268845806034448e+01,-1.645932410951463e-02
	9.973195936294492e-01,-2.016735833054999e-06
	9.983665899361603e-01,-1.191048702705715e-06
	7.192240985459066e-01,-2.038740208518383e-04
	-1.397421551087290e-01,-1.013977930219073e-04
	-1.891710993187961e-01,-1.372482343127553e-04
	-1.397807750850054e-01,-1.014031101237945e-04
	6.785143831236373e-01,-2.334309430021353e-04
	9.993859360662256e-01,-4.477626701901186e-07
	-1.228127867548487e-05,-8.955253403802372e-09
32		4.365158322401669e-01,2.154997069506364e-307
	9.999999999999999e-01,0.000000000000000e+00
	7.425004427255997e-01,-4.481827701138160e-04
	-2.266888319175703e+01,-1.722007119033241e-02
	-2.268785536303429e+01,-1.723447725263179e-02
	7.409422726836347e-01,-4.493832696784459e-04
	7.422278472748306e-01,-4.484066051544667e-04
	-2.268845898067397e+01,-1.723502759914793e-02
	9.973195935317025e-01,-2.111781605465371e-06
	9.983665898757110e-01,-1.247181062104946e-06
	7.192240871695993e-01,-2.134823005479629e-04
	-1.397421607786329e-01,-1.061765203476955e-04
	-1.891711069913665e-01,-1.437165396703256e-04
	-1.397807807551458e-01,-1.061820880367313e-04
	6.785143700979055e-01,-2.444321965248120e-04
	9.993859360435002e-01,-4.688650609417089e-07
	-1.228127912999283e-05,-9.377301218834178e-09
33		4.570881896148761e-01,2.154997069506364e-307
	9.999999999999999e-01,0.000000000000000e+00
	7.425004165214621e-01,-4.693049567077215e-04
	-2.266888420054416e+01,-1.803162750292439e-02
	-2.268785637266666e+01,-1.804671250148688e-02
	7.409422464113512e-01,-4.705620340305863e-04
	7.422278210598240e-01,-4.695393407619553e-04
	-2.268845999032622e+01,-1.804728878502265e-02
	9.973195934244677e-01,-2.211306738317808e-06
	9.983665898093937e-01,-1.305958852653504e-06
	7.192240746891466e-01,-2.235434034902153e-04
	-1.397421669988302e-01,-1.111804616428897e-04
	-1.891711154086001e-01,-1.504896861762719e-04
	-1.397807869756026e-01,-1.111862917288611e-04
	6.785143558079404e-01,-2.559519219788911e-04
	9.993859360185691e-01,-4.909619746817685e-07
	-1.228127962861481e-05,-9.819239493635370e-09
34		4.786300923226395e-01,2.154997069506364e-307
	9.999999999999999e-01,0.000000000000000e+00
	7.425003878068444e-01,-4.914225988364397e-04
	-2.266888530597467e+01,-1.888143119184084e-02
	-2.268785747902338e+01,-1.889722712386768e-02
	7.409422176221342e-01,-4.927389203387704e-04
	7.422277923333089e-01,-4.916680290629349e-04
	-2.268846109670472e+01,-1.889783056679530e-02
	9.973195933069685e-01,-2.315522336145643e-06
	9.983665897367259e-01,-1.367506748925871e-06
	7.192240610130445e-01,-2.340786704385637e-04
	-1.397421738149322e-01,-1.164202308440975e-04
	-1.891711246322171e-01,-1.575820404555352e-04
	-1.397807937919888e-01,-1.164263356933670e-04
	6.785143401489708e-01,-2.680145540309500e-04
	9.993859359912504e-01,-5.141002815510793e-07
	-1.228128017499025e-05,-1.028200563102158e-08
35		5.011872336272735e-01,2.154997069506364e-307
	9.999999999999999e-01,0.000000000000000e+00
	7.425003563036103e-01,-5.145826104865389e-04
	-2.266888651876770e+01,-1.977128478546241e-02
	-2.268785869283258e+01,-1.978782515612397e-02
	7.409421860371228e-01,-5.159609682531196e-04
	7.422277608170322e-01,-5.148396074741798e-04
	-2.268846231053781e+01,-1.978845703842399e-02
	9.973195931780492e-01,-2.424649452171122e-06
	9.983665896569976e-01,-1.431955301002217e-06
	7.192240460088198e-01,-2.451104478696270e-04
	-1.397421812930332e-01,-1.219069420860468e-04
	-1.891711347516585e-01,-1.650086461824050e-04
	-1.397808012704018e-01,-1.219133346477814e-04
	6.785143229693178e-01,-2.806456788693975e-04
	9.993859359612771e-01,-5.383290605271492e-07
	-1.228128077445517e-05,-1.076658121054298e-08
36		5.248074602497739e-01,2.154997069506364e-307
	9.999999999999999e-01,0.000000000000000e+00
	7.425003217827355e-01,-5.388341166278203e-04
	-2.266888784771549e+01,-2.070307576255177e-02
	-2.268786002289387e+01,-2.072039565605582e-02
	7.409421514265334e-01,-5.402774343293197e-04
	7.422277262818492e-01,-5.391032254999273e-04
	-2.268846364062528e+01,-2.072105731803212e-02
	9.973195930367863e-01,-2.538919557511675e-06
	9.983665895696355e-01,-1.499441211586743e-06
	7.192240295673166e-01,-2.566621354147180e-04
	-1.397421894873462e-01,-1.276522332954901e-04
	-1.891711458402844e-01,-1.727852560163341e-04
	-1.397808094650567e-01,-1.276589271291288e-04
	6.785143041439985e-01,-2.938720885199159e-04
	9.993859359284343e-01,-5.636997036040386e-07
	-1.228128143131169e-05,-1.127399407208077e-08
37		5.495408738576260e-01,2.154997069506364e-307
	9.999999999999999e-01,0.000000000000000e+00
	7.425002839179510e-01,-5.642285573063617e-04
	-2.266888930540686e+01,-2.167878055169352e-02
	-2.268786148180659e+01,-2.169691670569930e-02