Title: 
Date: Thu May 24 17:00:10 1990
Plotname: 
Flags: real
No. Variables: 2
No. Points: 0000451
Command: version CAzM 4.1
Variables:
	0	Frequency	Frequency
	1	vm_12	voltage
Values:

0		1.000000000000000e-01
	1.327982676903160e+00
1		1.047128548050900e-01
	1.327982673025297e+00
2		1.096478196143185e-01
	1.327982668773256e+00
3		1.148153621496883e-01
	1.327982664111021e+00
4		1.202264434617413e-01
	1.327982658998975e+00
5		1.258925411794168e-01
	1.327982653393677e+00
6		1.318256738556408e-01
	1.327982647247543e+00
7		1.380384264602885e-01
	1.327982640508550e+00
8		1.445439770745928e-01
	1.327982633119233e+00
9		1.513561248436209e-01
	1.327982625017131e+00
10		1.584893192461115e-01
	1.327982616133334e+00
11		1.659586907437562e-01
	1.327982606392679e+00
12		1.737800828749377e-01
	1.327982595711892e+00
13		1.819700858609985e-01
	1.327982584000613e+00
14		1.905460717963249e-01
	1.327982571159658e+00
15		1.995262314968882e-01
	1.327982557079906e+00
16		2.089296130854042e-01
	1.327982541641622e+00
17		2.187761623949555e-01
	1.327982524713955e+00
18		2.290867652767776e-01
	1.327982506153031e+00
19		2.398832919019494e-01
	1.327982485801539e+00
20		2.511886431509583e-01
	1.327982463486441e+00
21		2.630267991895386e-01
	1.327982439018256e+00
22		2.754228703338171e-01
	1.327982412189745e+00
23		2.884031503126611e-01
	1.327982382772688e+00
24		3.019951720402022e-01
	1.327982350517654e+00
25		3.162277660168385e-01
	1.327982315150786e+00
26		3.311311214825917e-01
	1.327982276371694e+00
27		3.467368504525323e-01
	1.327982233851090e+00
28		3.630780547701021e-01
	1.327982187228278e+00
29		3.801893963205620e-01
	1.327982136107451e+00
30		3.981071705534981e-01
	1.327982080054644e+00
31		4.168693834703363e-01
	1.327982018593903e+00
32		4.365158322401669e-01
	1.327981951203504e+00
33		4.570881896148761e-01
	1.327981877311606e+00
34		4.786300923226395e-01
	1.327981796290384e+00
35		5.011872336272735e-01
	1.327981707452726e+00
36		5.248074602497739e-01
	1.327981610044052e+00
37		5.495408738576260e-01
	1.327981503237715e+00
38		5.754399373371585e-01
	1.327981386126827e+00
39		6.025595860743594e-01
	1.327981257717277e+00
40		6.309573444801950e-01
	1.327981116919080e+00
41		6.606934480075979e-01
	1.327980962536970e+00
42		6.918309709189385e-01
	1.327980793260508e+00
43		7.244359600749922e-01
	1.327980607652767e+00
44		7.585775750291861e-01
	1.327980404137645e+00
45		7.943282347242840e-01
	1.327980180988059e+00
46		8.317637711026737e-01
	1.327979936309501e+00
47		8.709635899560836e-01
	1.327979668025093e+00
48		9.120108393559129e-01
	1.327979373857105e+00
49		9.549925860214393e-01
	1.327979051308562e+00
50		1.000000000000004e+00
	1.327978697641444e+00
51		1.047128548050903e+00
	1.327978309853421e+00
52		1.096478196143189e+00
	1.327977884652626e+00
53		1.148153621496887e+00
	1.327977418429759e+00
54		1.202264434617417e+00
	1.327976907227203e+00
55		1.258925411794172e+00
	1.327976346705461e+00
56		1.318256738556412e+00
	1.327975732106251e+00
57		1.380384264602890e+00
	1.327975058212807e+00
58		1.445439770745933e+00
	1.327974319304328e+00
59		1.513561248436214e+00
	1.327973509108836e+00
60		1.584893192461120e+00
	1.327972620748576e+00
61		1.659586907437567e+00
	1.327971646683314e+00
62		1.737800828749383e+00
	1.327970578644175e+00
63		1.819700858609991e+00
	1.327969407565692e+00
64		1.905460717963255e+00
	1.327968123507185e+00
65		1.995262314968888e+00
	1.327966715569240e+00
66		2.089296130854049e+00
	1.327965171801297e+00
67		2.187761623949563e+00
	1.327963479099473e+00
68		2.290867652767784e+00
	1.327961623096300e+00
69		2.398832919019502e+00
	1.327959588038150e+00
70		2.511886431509592e+00
	1.327957356652201e+00
71		2.630267991895395e+00
	1.327954909999048e+00
72		2.754228703338180e+00
	1.327952227312820e+00
73		2.884031503126621e+00
	1.327949285824169e+00
74		3.019951720402032e+00
	1.327946060568810e+00
75		3.162277660168396e+00
	1.327942524173473e+00
76		3.311311214825928e+00
	1.327938646625658e+00
77		3.467368504525334e+00
	1.327934395018025e+00
78		3.630780547701033e+00
	1.327929733269953e+00
79		3.801893963205632e+00
	1.327924621821111e+00
80		3.981071705534994e+00
	1.327919017297030e+00
81		4.168693834703377e+00
	1.327912872139917e+00
82		4.365158322401684e+00
	1.327906134207228e+00
83		4.570881896148776e+00
	1.327898746328786e+00
84		4.786300923226412e+00
	1.327890645822974e+00
85		5.011872336272753e+00
	1.327881763965337e+00
86		5.248074602497758e+00
	1.327872025406913e+00
87		5.495408738576280e+00
	1.327861347536247e+00
88		5.754399373371605e+00
	1.327849639779888e+00
89		6.025595860743615e+00
	1.327836802836447e+00
90		6.309573444801972e+00
	1.327822727835478e+00
91		6.606934480076003e+00
	1.327807295418202e+00
92		6.918309709189410e+00
	1.327790374727807e+00
93		7.244359600749949e+00
	1.327771822303191e+00
94		7.585775750291888e+00
	1.327751480867794e+00
95		7.943282347242868e+00
	1.327729178002156e+00
96		8.317637711026766e+00
	1.327704724687657e+00
97		8.709635899560865e+00
	1.327677913714424e+00
98		9.120108393559160e+00
	1.327648517933764e+00
99		9.549925860214426e+00
	1.327616288345085e+00
100		1.000000000000007e+01
	1.327580952001729e+00
101		1.047128548050907e+01
	1.327542209714344e+00
102		1.096478196143193e+01
	1.327499733539243e+00
103		1.148153621496891e+01
	1.327453164025318e+00
104		1.202264434617422e+01
	1.327402107201364e+00
105		1.258925411794177e+01
	1.327346131277823e+00
106		1.318256738556417e+01
	1.327284763036632e+00
107		1.380384264602895e+01
	1.327217483880644e+00
108		1.445439770745939e+01
	1.327143725510585e+00
109		1.513561248436220e+01
	1.327062865198610e+00
110		1.584893192461126e+01
	1.326974220615088e+00
111		1.659586907437574e+01
	1.326877044175966e+00
112		1.737800828749389e+01
	1.326770516863572e+00
113		1.819700858609998e+01
	1.326653741472998e+00
114		1.905460717963263e+01
	1.326525735236321e+00
115		1.995262314968896e+01
	1.326385421767707e+00
116		2.089296130854057e+01
	1.326231622272831e+00
117		2.187761623949572e+01
	1.326063045957157e+00
118		2.290867652767793e+01
	1.325878279567404e+00
119		2.398832919019511e+01
	1.325675775991830e+00
120		2.511886431509602e+01
	1.325453841847301e+00
121		2.630267991895405e+01
	1.325210623963474e+00
122		2.754228703338191e+01
	1.324944094684808e+00
123		2.884031503126632e+01
	1.324652035897636e+00
124		3.019951720402043e+01
	1.324332021685364e+00
125		3.162277660168408e+01
	1.323981399514401e+00
126		3.311311214825941e+01
	1.323597269849266e+00
127		3.467368504525349e+01
	1.323176464092894e+00
128		3.630780547701048e+01
	1.322715520744881e+00
129		3.801893963205648e+01
	1.322210659678034e+00
130		3.981071705535010e+01
	1.321657754423144e+00
131		4.168693834703394e+01
	1.321052302374239e+00
132		4.365158322401702e+01
	1.320389392819025e+00
133		4.570881896148795e+01
	1.319663672720941e+00
134		4.786300923226430e+01
	1.318869310189710e+00
135		5.011872336272772e+01
	1.317999955605880e+00
136		5.248074602497778e+01
	1.317048700388888e+00
137		5.495408738576300e+01
	1.316008033435930e+00
138		5.754399373371627e+01
	1.314869795306785e+00
139		6.025595860743638e+01
	1.313625130288672e+00
140		6.309573444801997e+01
	1.312264436538765e+00
141		6.606934480076028e+01
	1.310777314596246e+00
142		6.918309709189437e+01
	1.309152514649278e+00
143		7.244359600749976e+01
	1.307377883066358e+00
144		7.585775750291917e+01
	1.305440308839032e+00
145		7.943282347242899e+01
	1.303325670751798e+00
146		8.317637711026799e+01
	1.301018786272317e+00
147		8.709635899560901e+01
	1.298503363377101e+00
148		9.120108393559197e+01
	1.295761956754409e+00
149		9.549925860214464e+01
	1.292775930098449e+00
150		1.000000000000011e+02
	1.289525426479686e+00
151		1.047128548050911e+02
	1.285989349088972e+00
152		1.096478196143197e+02
	1.282145354955869e+00
153		1.148153621496896e+02
	1.277969864562052e+00
154		1.202264434617427e+02
	1.273438090568763e+00
155		1.258925411794182e+02
	1.268524089151495e+00
156		1.318256738556422e+02
	1.263200837657875e+00
157		1.380384264602901e+02
	1.257440342452259e+00
158		1.445439770745944e+02
	1.251213780838532e+00
159		1.513561248436226e+02
	1.244491680856466e+00
160		1.584893192461132e+02
	1.237244142446176e+00
161		1.659586907437580e+02
	1.229441102960728e+00
162		1.737800828749396e+02
	1.221052649236746e+00
163		1.819700858610005e+02
	1.212049377348810e+00
164		1.905460717963270e+02
	1.202402799785885e+00
165		1.995262314968904e+02
	1.192085798061158e+00
166		2.089296130854065e+02
	1.181073116724100e+00
167		2.187761623949579e+02
	1.169341892429106e+00
168		2.290867652767801e+02
	1.156872209185003e+00
169		2.398832919019520e+02
	1.143647668292663e+00
170		2.511886431509611e+02
	1.129655958898643e+00
171		2.630267991895415e+02
	1.114889412742585e+00
172		2.754228703338201e+02
	1.099345524746949e+00
173		2.884031503126642e+02
	1.083027419805780e+00
174		3.019951720402054e+02
	1.065944245677368e+00
175		3.162277660168419e+02
	1.048111472444722e+00
176		3.311311214825953e+02
	1.029551080703720e+00
177		3.467368504525360e+02
	1.010291623496484e+00
178		3.630780547701060e+02
	9.903681510004385e-01
179		3.801893963205661e+02
	9.698219919276169e-01
180		3.981071705535024e+02
	9.487003912543081e-01
181		4.168693834703408e+02
	9.270560099217009e-01
182		4.365158322401717e+02
	9.049462981610222e-01
183		4.570881896148811e+02
	8.824327596450690e-01
184		4.786300923226447e+02
	8.595801283933419e-01
185		5.011872336272790e+02
	8.364554839038930e-01
186		5.248074602497796e+02
	8.131273321323255e-01
187		5.495408738576319e+02
	7.896646805620230e-01
188		5.754399373371647e+02
	7.661361347350428e-01
189		6.025595860743659e+02
	7.426090413650361e-01
190		6.309573444802019e+02
	7.191486997730231e-01
191		6.606934480076051e+02
	6.958176591810900e-01
192		6.918309709189460e+02
	6.726751147018974e-01
193		7.244359600750001e+02
	6.497764100192712e-01
194		7.585775750291943e+02
	6.271726500718677e-01
195		7.943282347242927e+02
	6.049104227833033e-01
196		8.317637711026828e+02
	5.830316252202544e-01
197		8.709635899560930e+02
	5.615733866094001e-01
198		9.120108393559227e+02
	5.405680784685962e-01
199		9.549925860214496e+02
	5.200434006723614e-01
200		1.000000000000014e+03
	5.000225315457679e-01
201		1.047128548050915e+03
	4.805243299432879e-01
202		1.096478196143201e+03
	4.615635776384846e-01
203		1.148153621496899e+03
	4.431512510866756e-01
204		1.202264434617430e+03
	4.252948126376005e-01
205		1.258925411794186e+03
	4.079985124430497e-01
206		1.318256738556427e+03
	3.912636935584797e-01
207		1.380384264602905e+03
	3.750890939916076e-01
208		1.445439770745949e+03
	3.594711406622272e-01
209		1.513561248436231e+03
	3.444042313601944e-01
210		1.584893192461137e+03
	3.298810017950342e-01
211		1.659586907437586e+03
	3.158925757268153e-01
212		1.737800828749402e+03
	3.024287969164025e-01
213		1.819700858610011e+03
	2.894784422734347e-01
214		1.905460717963276e+03
	2.770294160912192e-01
215		1.995262314968910e+03
	2.650689256633477e-01
216		2.089296130854072e+03
	2.535836388921621e-01
217		2.187761623949587e+03
	2.425598247210575e-01
218		2.290867652767809e+03
	2.319834773870234e-01
219		2.398832919019528e+03
	2.218404255849439e-01
220		2.511886431509620e+03
	2.121164276916558e-01
221		2.630267991895424e+03
	2.027972542118430e-01
222		2.754228703338210e+03
	1.938687585954071e-01
223		2.884031503126652e+03
	1.853169375414074e-01
224		3.019951720402065e+03
	1.771279818542559e-01
225		3.162277660168430e+03
	1.692883188562500e-01
226		3.311311214825965e+03
	1.617846472941919e-01
227		3.467368504525373e+03
	1.546039656083299e-01
228		3.630780547701073e+03
	1.477335943579671e-01
229		3.801893963205674e+03
	1.411611935309255e-01
230		3.981071705535038e+03
	1.348747753929639e-01
231		4.168693834703423e+03
	1.288627134706269e-01
232		4.365158322401732e+03
	1.231137481977763e-01
233		4.570881896148827e+03
	1.176169897008940e-01
234		4.786300923226464e+03
	1.123619181443372e-01
235		5.011872336272808e+03
	1.073383820091183e-01
236		5.248074602497815e+03
	1.025365946349243e-01
237		5.495408738576340e+03
	9.794712931459658e-02
238		5.754399373371668e+03
	9.356091319570682e-02
239		6.025595860743681e+03
	8.936922020992928e-02
240		6.309573444802042e+03
	8.536366322408361e-02
241		6.606934480076075e+03
	8.153618557949416e-02
242		6.918309709189486e+03
	7.787905216464520e-02
243		7.244359600750028e+03
	7.438484014525082e-02
244		7.585775750291972e+03
	7.104642945890075e-02
245		7.943282347242956e+03
	6.785699316463928e-02
246		8.317637711026859e+03
	6.480998772575279e-02
247		8.709635899560963e+03
	6.189914329020568e-02
248		9.120108393559261e+03
	5.911845402429976e-02
249		9.549925860214533e+03
	5.646216854469210e-02
250		1.000000000000018e+04
	5.392478048686804e-02
251		1.047128548050919e+04
	5.150101924084730e-02
252		1.096478196143205e+04
	4.918584087895837e-02
253		1.148153621496904e+04
	4.697441929544129e-02
254		1.202264434617435e+04
	4.486213757313499e-02
255		1.258925411794191e+04
	4.284457958901586e-02
256		1.318256738556432e+04
	4.091752186642967e-02
257		1.380384264602911e+04
	3.907692568002055e-02
258		1.445439770745955e+04
	3.731892941612131e-02
259		1.513561248436237e+04
	3.563984118998606e-02
260		1.584893192461143e+04
	3.403613171938478e-02
261		1.659586907437592e+04
	3.250442745268232e-02
262		1.737800828749409e+04
	3.104150394837753e-02
263		1.819700858610018e+04
	2.964427950219443e-02
264		1.905460717963284e+04
	2.830980901697528e-02
265		1.995262314968918e+04
	2.703527811021283e-02
266		2.089296130854079e+04
	2.581799745309708e-02
267		2.187761623949595e+04
	2.465539733541871e-02
268		2.290867652767817e+04
	2.354502244938527e-02
269		2.398832919019537e+04
	2.248452688611900e-02
270		2.511886431509629e+04
	2.147166933791957e-02
271		2.630267991895433e+04
	2.050430849955676e-02
272		2.754228703338221e+04
	1.958039866176207e-02
273		2.884031503126663e+04
	1.869798549020375e-02
274		3.019951720402076e+04
	1.785520198320999e-02
275		3.162277660168443e+04
	1.705026460158699e-02
276		3.311311214825977e+04
	1.628146956409813e-02
277		3.467368504525386e+04
	1.554718930225875e-02
278		3.630780547701087e+04
	1.484586906812369e-02
279		3.801893963205689e+04
	1.417602368915164e-02
280		3.981071705535053e+04
	1.353623446417845e-02
281		4.168693834703439e+04
	1.292514619484215e-02
282		4.365158322401749e+04
	1.234146434688660e-02
283		4.570881896148844e+04
	1.178395233607062e-02
284		4.786300923226482e+04
	1.125142893347854e-02
285		5.011872336272826e+04
	1.074276578527018e-02
286		5.248074602497835e+04
	1.025688504213688e-02
287		5.495408738576360e+04
	9.792757093771325e-03
288		5.754399373371689e+04
	9.349398404057302e-03
289		6.025595860743703e+04
	8.925869442623465e-03
290		6.309573444802064e+04
	8.521272708785253e-03
291		6.606934480076098e+04
	8.134750843965049e-03
292		6.918309709189511e+04
	7.765484828865007e-03
293		7.244359600750054e+04
	7.412692261870148e-03
294		7.585775750291999e+04
	7.075625715298606e-03
295		7.943282347242985e+04
	6.753571166262061e-03
296		8.317637711026889e+04
	6.445846499116657e-03
297		8.709635899560995e+04
	6.151800076561390e-03
298		9.120108393559295e+04
	5.870809376667977e-03
299		9.549925860214567e+04
	5.602279693223052e-03
300		1.000000000000022e+05
	5.345642896930405e-03
301		1.047128548050922e+05
	5.100356255165124e-03
302		1.096478196143209e+05
	4.865901308098138e-03
303		1.148153621496908e+05
	4.641782799160860e-03
304		1.202264434617439e+05
	4.427527657911720e-03
305		1.258925411794195e+05
	4.222684033544055e-03
306		1.318256738556436e+05
	4.026820377327562e-03
307		1.380384264602916e+05
	3.839524572416725e-03
308		1.445439770745960e+05
	3.660403109549271e-03
309		1.513561248436242e+05
	3.489080307221161e-03
310		1.584893192461149e+05
	3.325197574997700e-03
311		1.659586907437598e+05
	3.168412718649794e-03
312		1.737800828749415e+05
	3.018399285837760e-03
313		1.819700858610025e+05
	2.874845951020219e-03
314		1.905460717963291e+05
	2.737455938246729e-03
315		1.995262314968925e+05
	2.605946480382949e-03
316		2.089296130854088e+05
	2.480048313181429e-03
317		2.187761623949603e+05
	2.359505202433897e-03
318		2.290867652767826e+05
	2.244073502192724e-03
319		2.398832919019546e+05
	2.133521741751963e-03
320		2.511886431509639e+05
	2.027630238712877e-03
321		2.630267991895443e+05
	1.926190735069891e-03
322		2.754228703338231e+05
	1.829006052761719e-03
323		2.884031503126674e+05
	1.735889764674915e-03
324		3.019951720402087e+05
	1.646665876547956e-03
325		3.162277660168454e+05
	1.561168514743800e-03
326		3.311311214825989e+05
	1.479241614409071e-03
327		3.467368504525398e+05
	1.400738602165359e-03
328		3.630780547701099e+05
	1.325522067265175e-03
329		3.801893963205702e+05
	1.253463415103305e-03
330		3.981071705535067e+05
	1.184442497193432e-03
331		4.168693834703453e+05
	1.118347212235473e-03
332		4.365158322401764e+05
	1.055073073739635e-03
333		4.570881896148860e+05
	9.945227409135467e-04
334		4.786300923226498e+05
	9.366055110915477e-04
335		5.011872336272844e+05
	8.812367739353147e-04
336		5.248074602497852e+05
	8.283374298384691e-04
337		5.495408738576378e+05
	7.778332773807142e-04
338		5.754399373371708e+05
	7.296543771066738e-04
339		6.025595860743723e+05
	6.837344012649747e-04
340		6.309573444802085e+05
	6.400099811643051e-04
341		6.606934480076120e+05
	5.984200654085093e-04
342		6.918309709189533e+05
	5.589053032049398e-04
343		7.244359600750078e+05
	5.214074671601750e-04
344		7.585775750292024e+05
	4.858689293568023e-04
345		7.943282347243010e+05
	4.522322030752032e-04
346		8.317637711026915e+05
	4.204395603426114e-04
347		8.709635899561022e+05
	3.904327326888852e-04
348		9.120108393559324e+05
	3.621526992622812e-04
349		9.549925860214598e+05
	3.355395630288262e-04
350		1.000000000000025e+06
	3.105325123795553e-04
351		1.047128548050926e+06
	2.870698623380533e-04
352		1.096478196143213e+06
	2.650891668740754e-04
353		1.148153621496912e+06
	2.445273917485355e-04
354		1.202264434617443e+06
	2.253211359093570e-04
355		1.258925411794199e+06
	2.074068887604825e-04
356		1.318256738556441e+06
	1.907213106056989e-04
357		1.380384264602920e+06
	1.752015241385325e-04
358		1.445439770745965e+06
	1.607854059104098e-04
359		1.513561248436247e+06
	1.474118681217913e-04
360		1.584893192461154e+06
	1.350211227225847e-04
361		1.659586907437604e+06
	1.235549215464679e-04
362		1.737800828749421e+06
	1.129567679349049e-04
363		1.819700858610031e+06
	1.031720969402130e-04
364		1.905460717963297e+06
	9.414842267157667e-05
365		1.995262314968932e+06
	8.583545261891279e-05
366		2.089296130854094e+06
	7.818516984218257e-05
367		2.187761623949610e+06
	7.115188474036983e-05
368		2.290867652767833e+06
	6.469225872680757e-05
369		2.398832919019554e+06
	5.876530255920399e-05
370		2.511886431509647e+06
	5.333235232303756e-05
371		2.630267991895452e+06
	4.835702617777438e-05
372		2.754228703338240e+06
	4.380516497376246e-05
373		2.884031503126683e+06
	3.964475975777261e-05
374		3.019951720402097e+06
	3.584586903082947e-05
375		3.162277660168464e+06
	3.238052842252210e-05
376		3.311311214826000e+06
	2.922265521508281e-05
377		3.467368504525410e+06
	2.634794990113822e-05
378		3.630780547701112e+06
	2.373379669865896e-05
379		3.801893963205715e+06
	2.135916468193787e-05
380		3.981071705535081e+06
	1.920451092200232e-05
381		4.168693834703468e+06
	1.725168676826403e-05
382		4.365158322401779e+06
	1.548384814770520e-05
383		4.570881896148875e+06
	1.388537051287748e-05
384		4.786300923226515e+06
	1.244176883910627e-05
385		5.011872336272861e+06
	1.113962285914763e-05
386		5.248074602497871e+06
	9.966507535212224e-06
387		5.495408738576398e+06
	8.910928608089670e-06
388		5.754399373371730e+06
	7.962262934869381e-06
389		6.025595860743746e+06
	7.110703232968875e-06
390		6.309573444802109e+06
	6.347206789532414e-06
391		6.606934480076145e+06
	5.663447670136149e-06
392		6.918309709189559e+06
	5.051771966163216e-06
393		7.244359600750105e+06
	4.505155650891312e-06
394		7.585775750292052e+06
	4.017164664231678e-06
395		7.943282347243040e+06
	3.581916908459820e-06
396		8.317637711026946e+06
	3.194045905392574e-06
397		8.709635899561055e+06
	2.848665933464575e-06
398		9.120108393559359e+06
	2.541338525988684e-06
399		9.549925860214634e+06
	2.268040266037807e-06
400		1.000000000000029e+07
	2.025131856688426e-06
401		1.047128548050930e+07
	1.809328476935942e-06
402		1.096478196143217e+07
	1.617671453738157e-06
403		1.148153621496916e+07
	1.447501290420569e-06
404		1.202264434617448e+07
	1.296432092795742e-06
405		1.258925411794204e+07
	1.162327428660541e-06
406		1.318256738556446e+07
	1.043277645916958e-06
407		1.380384264602925e+07
	9.375786611298917e-07
408		1.445439770745970e+07
	8.437122155895367e-07
409		1.513561248436253e+07
	7.603275811320386e-07
410		1.584893192461161e+07
	6.862246840349906e-07
411		1.659586907437610e+07
	6.203386029739192e-07
412		1.737800828749427e+07
	5.617253866235313e-07
413		1.819700858610038e+07
	5.095491282403218e-07
414		1.905460717963304e+07
	4.630702284478794e-07
415		1.995262314968939e+07
	4.216347733511162e-07
416		2.089296130854102e+07
	3.846649528347575e-07
417		2.187761623949618e+07
	3.516504432201449e-07
418		2.290867652767842e+07
	3.221406790946484e-07
419		2.398832919019562e+07
	2.957379408528094e-07
420		2.511886431509656e+07
	2.720911870538804e-07
421		2.630267991895461e+07
	2.508905638966903e-07
422		2.754228703338250e+07
	2.318625277640218e-07
423		2.884031503126694e+07
	2.147655207330330e-07
424		3.019951720402108e+07
	1.993861430657780e-07
425		3.162277660168476e+07
	1.855357708761190e-07
426		3.311311214826012e+07
	1.730475713407422e-07
427		3.467368504525422e+07
	1.617738719146648e-07
428		3.630780547701125e+07
	1.515838439781477e-07
429		3.801893963205729e+07
	1.423614651468886e-07
430		3.981071705535095e+07
	1.340037280905523e-07
431		4.168693834703483e+07
	1.264190671072159e-07
432		4.365158322401795e+07
	1.195259768775918e-07
433		4.570881896148892e+07
	1.132518007614087e-07
434		4.786300923226532e+07
	1.075316686907168e-07
435		5.011872336272878e+07
	1.023075671541706e-07
436		5.248074602497889e+07
	9.752752594912920e-08
437		5.495408738576417e+07
	9.314490830091591e-08
438		5.754399373371749e+07
	8.911779261285359e-08
439		6.025595860743766e+07
	8.540843552114044e-08
440		6.309573444802130e+07
	8.198280709628814e-08
441		6.606934480076168e+07
	7.881018997557631e-08
442		6.918309709189583e+07
	7.586283495489092e-08
443		7.244359600750130e+07
	7.311566614710941e-08
444		7.585775750292079e+07
	7.054602926889510e-08
445		7.943282347243069e+07
	6.813347699281604e-08
446		8.317637711026977e+07
	6.585958564263134e-08
447		8.709635899561086e+07
	6.370779785696559e-08
448		9.120108393559392e+07
	6.166328623230881e-08
449		9.549925860214669e+07
	5.971283339981949e-08
450		1.000000000000032e+08
	5.784472449660003e-08